                               Psi4 1.4a2.dev629

  ==> Input File <==

--------------------------------------------------------------------------
# o-Benzyne preliminary computations

memory 14 gb

molecule {
  0 1
  units bohr
 H   -0.0000000000   -1.4256006426    0.9985291389
 O    0.0000000000   -0.0000000000   -0.1307146577
 H    0.0000000000    1.4256006426    0.9985291389
}

set {
  basis cc-pvdz
  reference rhf
  e_convergence 10
  d_convergence 10
  r_convergence 8
  maxiter 300
  freeze_core True
}

e, wfn = energy('ccsd(t)', return_wfn = True)
psi4.print_out('Giraffe The Energy is %.12f \n'%(e))
--------------------------------------------------------------------------

    Molecular point group: c2v

    Geometry (in Bohr), charge = 0, multiplicity = 1:

       Center              X                  Y                   Z               Mass
    ------------   -----------------  -----------------  -----------------  -----------------
         H            0.000000000000    -1.425600642600     1.002864620192     1.007825032230
         O            0.000000000000     0.000000000000    -0.126379176408    15.994914619570
         H           -0.000000000000     1.425600642600     1.002864620192     1.007825032230

  Charge       = 0
  Multiplicity = 1
  Basis Set: CC-PVDZ
    Blend: CC-PVDZ

    Orbital Energies [Eh]
    ---------------------

    Doubly Occupied:

       1A1   -20.552037     2A1    -1.335110     1B2    -0.694117
       3A1    -0.568245     1B1    -0.493248

  @RHF Final Energy:   -76.02649220004275

   => Energetics <=

    Nuclear Repulsion Energy =              9.1484095182356313
    One-Electron Energy =                -123.0642884243760022
    Two-Electron Energy =                  37.8893867060976177
    Total Energy =                        -76.0264922000427532

  Dipole Moment: [D]
     X:     0.0000      Y:     0.0000      Z:     2.0806     Total:     2.0806

      * MP2 total energy                      =  -76.228616219260161
      * CCSD total energy                     =  -76.238170753972028
      * CCSD(T) total energy                  =  -76.241241715230018
*** Psi4 exiting successfully. Buy a developer a beer!
