                               Psi4 1.4a2.dev629

  ==> Input File <==

--------------------------------------------------------------------------
# o-Benzyne preliminary computations

memory 14 gb

molecule {
  0 1
  units bohr
 H    0.0000000000   -1.4302408701    0.9973681169
 O    0.0000000000    0.0000000000   -0.1283926137
 H    0.0000000000    1.4302408701    0.9973681169
}

set {
  basis cc-pvtz
  reference rhf
  e_convergence 10
  d_convergence 10
  r_convergence 8
  maxiter 300
  freeze_core True
}

e, wfn = energy('ccsd(t)', return_wfn = True)
psi4.print_out('Giraffe The Energy is %.12f \n'%(e))
--------------------------------------------------------------------------

    Molecular point group: c2v

    Geometry (in Bohr), charge = 0, multiplicity = 1:

       Center              X                  Y                   Z               Mass
    ------------   -----------------  -----------------  -----------------  -----------------
         H            0.000000000000    -1.430240870100     0.999771361082     1.007825032230
         O            0.000000000000     0.000000000000    -0.125989369518    15.994914619570
         H           -0.000000000000     1.430240870100     0.999771361082     1.007825032230

  Charge       = 0
  Multiplicity = 1
  Basis Set: CC-PVTZ
    Blend: CC-PVTZ

    Orbital Energies [Eh]
    ---------------------

    Doubly Occupied:

       1A1   -20.556250     2A1    -1.343307     1B2    -0.704781
       3A1    -0.578431     1B1    -0.504307

  @RHF Final Energy:   -76.05664160460907

   => Energetics <=

    Nuclear Repulsion Energy =              9.1401021043988244
    One-Electron Energy =                -123.0193372194413115
    Two-Electron Energy =                  37.8225935104334212
    Total Energy =                        -76.0566416046090694

  Dipole Moment: [D]
     X:     0.0000      Y:     0.0000      Z:     2.0445     Total:     2.0445

      * MP2 total energy                      =  -76.318624669747621
      * CCSD total energy                     =  -76.324487224222437
      * CCSD(T) total energy                  =  -76.332189635786975
*** Psi4 exiting successfully. Buy a developer a beer!
