                               Psi4 1.4a2.dev629

  ==> Input File <==

--------------------------------------------------------------------------
# o-Benzyne preliminary computations

memory 14 gb

molecule {
  0 1
  units bohr
 H   -0.0000000000   -1.4299792057    0.9929638579
 O    0.0000000000   -0.0049637879   -0.1234914625
 H    0.0000000000    1.4349429935    0.9968712246
}

set {
  basis cc-pvdz
  reference rhf
  e_convergence 10
  d_convergence 10
  r_convergence 8
  maxiter 300
  freeze_core True
}

e, wfn = energy('ccsd(t)', return_wfn = True)
psi4.print_out('Giraffe The Energy is %.12f \n'%(e))
--------------------------------------------------------------------------

    Molecular point group: cs

    Geometry (in Bohr), charge = 0, multiplicity = 1:

       Center              X                  Y                   Z               Mass
    ------------   -----------------  -----------------  -----------------  -----------------
         H            1.425848700335    -0.991288718461     0.000000000000     1.007825032230
         O            0.000833282535     0.125166601939     0.000000000000    15.994914619570
         H           -1.439073498865    -0.995196085161     0.000000000000     1.007825032230

  Charge       = 0
  Multiplicity = 1
  Basis Set: CC-PVDZ
    Blend: CC-PVDZ

    Orbital Energies [Eh]
    ---------------------

    Doubly Occupied:

       1Ap   -20.551473     2Ap    -1.334829     3Ap    -0.696019
       4Ap    -0.566720     1App   -0.493005

  @RHF Final Energy:   -76.02652665766411

   => Energetics <=

    Nuclear Repulsion Energy =              9.1531681235081663
    One-Electron Energy =                -123.0752990399702469
    Two-Electron Energy =                  37.8956042587979880
    Total Energy =                        -76.0265266576640926

  Dipole Moment: [D]
     X:    -0.0088      Y:    -2.0678      Z:     0.0000     Total:     2.0679

      * MP2 total energy                      =  -76.228516532793535
      * CCSD total energy                     =  -76.238080923351347
      * CCSD(T) total energy                  =  -76.241140261582345
*** Psi4 exiting successfully. Buy a developer a beer!
