                               Psi4 1.4a2.dev629

  ==> Input File <==

--------------------------------------------------------------------------
# o-Benzyne preliminary computations

memory 14 gb

molecule {
  0 1
  units bohr
 C   -1.3729734117   -0.0245396759    0.0000011692
 O    1.3075586257    0.1204072928   -0.0000000955
 H   -2.0798654770    1.9079654395   -0.0000824692
 H   -2.1104605570   -0.9779779199    1.6814259224
 H   -2.1104578133   -0.9781040837   -1.6813536236
 H    1.9424744733   -1.5778831728    0.0000006866
}

set {
  basis cc-pvtz
  reference rhf
  e_convergence 10
  d_convergence 10
  r_convergence 8
  maxiter 300
  freeze_core True
}

e, wfn = energy('ccsd(t)', return_wfn = True)
psi4.print_out('Giraffe The Energy is %.12f \n'%(e))
--------------------------------------------------------------------------

    Molecular point group: c1

    Geometry (in Bohr), charge = 0, multiplicity = 1:

       Center              X                  Y                   Z               Mass
    ------------   -----------------  -----------------  -----------------  -----------------
         C           -1.374415803590    -0.024311894372     0.000001077248    12.000000000000
         O            1.306116233810     0.120635074328    -0.000000187452    15.994914619570
         H           -2.081307868890     1.908193221028    -0.000082561152     1.007825032230
         H           -2.111902948890    -0.977750138372     1.681425830448     1.007825032230
         H           -2.111900205190    -0.977876302172    -1.681353715552     1.007825032230
         H            1.941032081410    -1.577655391272     0.000000594648     1.007825032230

  Charge       = 0
  Multiplicity = 1
  Basis Set: CC-PVTZ
    Blend: CC-PVTZ

    Orbital Energies [Eh]
    ---------------------

    Doubly Occupied:

       1A    -20.552804     2A    -11.269750     3A     -1.354280
       4A     -0.923148     5A     -0.687964     6A     -0.617598
       7A     -0.590262     8A     -0.501952     9A     -0.449209

  @RHF Final Energy:  -115.08910645202613

   => Energetics <=

    Nuclear Repulsion Energy =             40.3082726473900763
    One-Electron Energy =                -236.9008227257181431
    Two-Electron Energy =                  81.5034436263019302
    Total Energy =                       -115.0891064520261295

  Dipole Moment: [D]
     X:    -0.9830      Y:    -1.4949      Z:    -0.0000     Total:     1.7892

      * MP2 total energy                      = -115.517447356608869
      * CCSD total energy                     = -115.535994038055904
      * CCSD(T) total energy                  = -115.550784842180477
*** Psi4 exiting successfully. Buy a developer a beer!
