                               Psi4 1.4a2.dev629

  ==> Input File <==

--------------------------------------------------------------------------
# o-Benzyne preliminary computations

memory 14 gb

molecule {
  0 1
  units bohr
 C   -1.3750712117   -0.0242783422   -0.0029025007
 O    1.3060065526    0.1207007223    0.0023540776
 H   -2.0778699226    1.9096094252    0.0006330313
 H   -2.1048495861   -0.9790633576    1.6809078197
 H   -2.1131107810   -0.9796098575   -1.6829690168
 H    1.9411707887   -1.5774907102    0.0019681789
}

set {
  basis cc-pvtz
  reference rhf
  e_convergence 10
  d_convergence 10
  r_convergence 8
  maxiter 300
  freeze_core True
}

e, wfn = energy('ccsd(t)', return_wfn = True)
psi4.print_out('Giraffe The Energy is %.12f \n'%(e))
--------------------------------------------------------------------------

    Molecular point group: c1

    Geometry (in Bohr), charge = 0, multiplicity = 1:

       Center              X                  Y                   Z               Mass
    ------------   -----------------  -----------------  -----------------  -----------------
         C           -1.375067274584    -0.024277570951    -0.003007648953    12.000000000000
         O            1.306010489716     0.120701493549     0.002248929347    15.994914619570
         H           -2.077865985484     1.909610196449     0.000527883047     1.007825032230
         H           -2.104845648984    -0.979062586351     1.680802671447     1.007825032230
         H           -2.113106843884    -0.979609086251    -1.683074165053     1.007825032230
         H            1.941174725816    -1.577489938951     0.001863030647     1.007825032230

  Charge       = 0
  Multiplicity = 1
  Basis Set: CC-PVTZ
    Blend: CC-PVTZ

    Orbital Energies [Eh]
    ---------------------

    Doubly Occupied:

       1A    -20.552620     2A    -11.269754     3A     -1.354104
       4A     -0.923075     5A     -0.687874     6A     -0.617661
       7A     -0.590046     8A     -0.502056     9A     -0.449144

  @RHF Final Energy:  -115.08911151393421

   => Energetics <=

    Nuclear Repulsion Energy =             40.3078103377984434
    One-Electron Energy =                -236.9011767577600551
    Two-Electron Energy =                  81.5042549060274126
    Total Energy =                       -115.0891115139342133

  Dipole Moment: [D]
     X:    -0.9842      Y:    -1.4950      Z:    -0.0031     Total:     1.7899

      * MP2 total energy                      = -115.517445989320279
      * CCSD total energy                     = -115.535993301176475
      * CCSD(T) total energy                  = -115.550783484964143
*** Psi4 exiting successfully. Buy a developer a beer!
