                               Psi4 1.4a2.dev629

  ==> Input File <==

--------------------------------------------------------------------------
# o-Benzyne preliminary computations

memory 14 gb

molecule {
  0 1
  units bohr
 C   -1.3758877784   -0.0257410908   -0.0000031460
 O    1.3053926116    0.1194403538   -0.0000014442
 H   -2.0805018239    1.9076739472   -0.0000695356
 H   -2.1070637048   -0.9764712124    1.6853301354
 H   -2.1070449384   -0.9766181764   -1.6852603522
 H    1.9413814740   -1.5784159414   -0.0000040675
}

set {
  basis cc-pvtz
  reference rhf
  e_convergence 10
  d_convergence 10
  r_convergence 8
  maxiter 300
  freeze_core True
}

e, wfn = energy('ccsd(t)', return_wfn = True)
psi4.print_out('Giraffe The Energy is %.12f \n'%(e))
--------------------------------------------------------------------------

    Molecular point group: c1

    Geometry (in Bohr), charge = 0, multiplicity = 1:

       Center              X                  Y                   Z               Mass
    ------------   -----------------  -----------------  -----------------  -----------------
         C           -1.375316273973    -0.024648462632    -0.000001125729    12.000000000000
         O            1.305964116027     0.120532981968     0.000000576071    15.994914619570
         H           -2.079930319473     1.908766575368    -0.000067515329     1.007825032230
         H           -2.106492200373    -0.975378584232     1.685332155671     1.007825032230
         H           -2.106473433973    -0.975525548232    -1.685258331929     1.007825032230
         H            1.941952978427    -1.577323313232    -0.000002047229     1.007825032230

  Charge       = 0
  Multiplicity = 1
  Basis Set: CC-PVTZ
    Blend: CC-PVTZ

    Orbital Energies [Eh]
    ---------------------

    Doubly Occupied:

       1A    -20.552510     2A    -11.269734     3A     -1.354000
       4A     -0.923071     5A     -0.687539     6A     -0.618097
       7A     -0.590048     8A     -0.501628     9A     -0.449304

  @RHF Final Energy:  -115.08911984382937

   => Energetics <=

    Nuclear Repulsion Energy =             40.3073828781348595
    One-Electron Energy =                -236.9011409261651124
    Two-Electron Energy =                  81.5046382042008872
    Total Energy =                       -115.0891198438293657

  Dipole Moment: [D]
     X:    -0.9847      Y:    -1.4938      Z:    -0.0000     Total:     1.7891

      * MP2 total energy                      = -115.517445096710574
      * CCSD total energy                     = -115.535994488242480
      * CCSD(T) total energy                  = -115.550783325889455
*** Psi4 exiting successfully. Buy a developer a beer!
