                               Psi4 1.4a2.dev629

  ==> Input File <==

--------------------------------------------------------------------------
# o-Benzyne preliminary computations

memory 14 gb

molecule {
  0 1
  units bohr
 C   -1.3751154942   -0.0253424423    0.0000002461
 O    1.3077465371    0.1160882278    0.0000003609
 H   -2.0792252513    1.9099399226   -0.0000798705
 H   -2.1086591295   -0.9784583339    1.6820920610
 H   -2.1086521466   -0.9785896093   -1.6820199174
 H    1.9401813246   -1.5737698850   -0.0000012901
  no_reorient
  no_com
}

set {
  basis 6-31g*
  reference rhf
  e_convergence 10
  d_convergence 10
  r_convergence 8
  maxiter 300
  dft_spherical_points 1202
  dft_radial_points 99
  freeze_core True
}

#gradient('ccsd(t)')
gradient('b3lyp')
--------------------------------------------------------------------------

    Molecular point group: c1
  Charge       = 0
  Multiplicity = 1
  Basis Set: 6-31G*
    Blend: 6-31G*
  Basis Set: (6-31G* AUX)
    Blend: CC-PVDZ-JKFIT

    Orbital Energies [Eh]
    ---------------------

    Doubly Occupied:

       1A    -19.137926     2A    -10.223171     3A     -1.011846
       4A     -0.680643     5A     -0.502870     6A     -0.435775
       7A     -0.419742     8A     -0.330581     9A     -0.264545

  @DF-RKS Final Energy:  -115.71417564699918

   => Energetics <=

    Nuclear Repulsion Energy =             40.3177729546349326
    One-Electron Energy =                -237.0308392245738958
    Two-Electron Energy =                  93.5527313165302132
    DFT Exchange-Correlation Energy =     -12.5538406935904288
    Empirical Dispersion Energy =           0.0000000000000000
    VV10 Nonlocal Energy =                  0.0000000000000000
    Total Energy =                       -115.7141756469991805

  Dipole Moment: [D]
     X:    -0.8504      Y:    -1.4822      Z:    -0.0000     Total:     1.7088

    Molecular point group: c1

    Geometry (in Bohr), charge = 0, multiplicity = 1:

       Center              X                  Y                   Z               Mass
    ------------   -----------------  -----------------  -----------------  -----------------
         C           -1.375115494200    -0.025342442300     0.000000246100    12.000000000000
         O            1.307746537100     0.116088227800     0.000000360900    15.994914619570
         H           -2.079225251300     1.909939922600    -0.000079870500     1.007825032230
         H           -2.108659129500    -0.978458333900     1.682092061000     1.007825032230
         H           -2.108652146600    -0.978589609300    -1.682019917400     1.007825032230
         H            1.940181324600    -1.573769885000    -0.000001290100     1.007825032230

  Basis Set: 6-31G*
    Blend: 6-31G*
  Basis Set: (6-31G* AUX)
    Blend: CC-PVDZ-JKFIT

  -Total Gradient:
     Atom            X                  Y                   Z
    ------   -----------------  -----------------  -----------------
       1       -0.005652896335    -0.001155208848     0.000000179630
       2        0.005994650476    -0.013525204631     0.000000258468
       3        0.000346065355    -0.002326951521    -0.000000099137
       4        0.002217906780     0.002039167447    -0.003109206105
       5        0.002217885587     0.002039420314     0.003109079104
       6       -0.005123693984     0.012928842098    -0.000000211965

*** Psi4 exiting successfully. Buy a developer a beer!
