                               Psi4 1.4a2.dev629

  ==> Input File <==

--------------------------------------------------------------------------
# o-Benzyne preliminary computations

memory 14 gb

molecule {
  0 1
  units bohr
 H    0.0000000000   -1.4236158228    0.9933245015
 O    0.0000000000    0.0000000000   -0.1203053830
 H    0.0000000000    1.4236158228    0.9933245015
}

set {
  basis cc-pvdz
  reference rhf
  e_convergence 10
  d_convergence 10
  r_convergence 8
  maxiter 300
  freeze_core True
}

e, wfn = energy('ccsd(t)', return_wfn = True)
psi4.print_out('Giraffe The Energy is %.12f \n'%(e))
--------------------------------------------------------------------------

    Molecular point group: c2v

    Geometry (in Bohr), charge = 0, multiplicity = 1:

       Center              X                  Y                   Z               Mass
    ------------   -----------------  -----------------  -----------------  -----------------
         H            0.000000000000    -1.423615822800     0.988998137086     1.007825032230
         O            0.000000000000     0.000000000000    -0.124631747414    15.994914619570
         H           -0.000000000000     1.423615822800     0.988998137086     1.007825032230

  Charge       = 0
  Multiplicity = 1
  Basis Set: CC-PVDZ
    Blend: CC-PVDZ

    Orbital Energies [Eh]
    ---------------------

    Doubly Occupied:

       1A1   -20.550606     2A1    -1.337561     1B2    -0.698608
       3A1    -0.567916     1B1    -0.493415

  @RHF Final Energy:   -76.02683111123245

   => Energetics <=

    Nuclear Repulsion Energy =              9.2034985266117246
    One-Electron Energy =                -123.1644477795910291
    Two-Electron Energy =                  37.9341181417468505
    Total Energy =                        -76.0268311112324540

  Dipole Moment: [D]
     X:     0.0000      Y:     0.0000      Z:     2.0644     Total:     2.0644

      * MP2 total energy                      =  -76.228459206950092
      * CCSD total energy                     =  -76.238018734254325
      * CCSD(T) total energy                  =  -76.241054749494609
*** Psi4 exiting successfully. Buy a developer a beer!
