                               Psi4 1.4a2.dev629

  ==> Input File <==

--------------------------------------------------------------------------
# o-Benzyne preliminary computations

memory 14 gb

molecule {
  0 1
  units bohr
 C   -1.3759698094   -0.0243210196    0.0000003917
 O    1.3045737799    0.1202123437    0.0000002610
 H   -2.0781542727    1.9048097757   -0.0000797468
 H   -2.1081560499   -0.9763611435    1.6770458120
 H   -2.1081489293   -0.9764919247   -1.6769738157
 H    1.9421311214   -1.5779801516   -0.0000013122
  no_reorient
  no_com
}

set {
  basis 6-31g*
  reference rhf
  e_convergence 10
  d_convergence 10
  r_convergence 8
  maxiter 300
  dft_spherical_points 1202
  dft_radial_points 99
  freeze_core True
}

#gradient('ccsd(t)')
gradient('b3lyp')
--------------------------------------------------------------------------

    Molecular point group: c1
  Charge       = 0
  Multiplicity = 1
  Basis Set: 6-31G*
    Blend: 6-31G*
  Basis Set: (6-31G* AUX)
    Blend: CC-PVDZ-JKFIT

    Orbital Energies [Eh]
    ---------------------

    Doubly Occupied:

       1A    -19.138240     2A    -10.222101     3A     -1.011083
       4A     -0.680826     5A     -0.502748     6A     -0.436098
       7A     -0.419982     8A     -0.330564     9A     -0.264332

  @DF-RKS Final Energy:  -115.71421292103280

   => Energetics <=

    Nuclear Repulsion Energy =             40.3416125362911870
    One-Electron Energy =                -237.0800659787641962
    Two-Electron Energy =                  93.5791881965946715
    DFT Exchange-Correlation Energy =     -12.5549476751544677
    Empirical Dispersion Energy =           0.0000000000000000
    VV10 Nonlocal Energy =                  0.0000000000000000
    Total Energy =                       -115.7142129210327965

  Dipole Moment: [D]
     X:    -0.8481      Y:    -1.4855      Z:    -0.0000     Total:     1.7105

    Molecular point group: c1

    Geometry (in Bohr), charge = 0, multiplicity = 1:

       Center              X                  Y                   Z               Mass
    ------------   -----------------  -----------------  -----------------  -----------------
         C           -1.375969809400    -0.024321019600     0.000000391700    12.000000000000
         O            1.304573779900     0.120212343700     0.000000261000    15.994914619570
         H           -2.078154272700     1.904809775700    -0.000079746800     1.007825032230
         H           -2.108156049900    -0.976361143500     1.677045812000     1.007825032230
         H           -2.108148929300    -0.976491924700    -1.676973815700     1.007825032230
         H            1.942131121400    -1.577980151600    -0.000001312200     1.007825032230

  Basis Set: 6-31G*
    Blend: 6-31G*
  Basis Set: (6-31G* AUX)
    Blend: CC-PVDZ-JKFIT

  -Total Gradient:
     Atom            X                  Y                   Z
    ------   -----------------  -----------------  -----------------
       1       -0.006639404985    -0.000572646215     0.000000240431
       2        0.003126691800    -0.008510660361     0.000000247894
       3        0.001256769775    -0.004515167976    -0.000000024994
       4        0.002779718285     0.002809819638    -0.004678436541
       5        0.002779681349     0.002810177620     0.004678193006
       6       -0.003303543108     0.007978542218    -0.000000219799

*** Psi4 exiting successfully. Buy a developer a beer!
