                               Psi4 1.4a2.dev629

  ==> Input File <==

--------------------------------------------------------------------------
# o-Benzyne preliminary computations

memory 14 gb

molecule {
  0 1
  units bohr
 H   -0.0000000000   -1.4334539661    0.9975283638
 O    0.0000000000   -0.0000000000   -0.1287131076
 H    0.0000000000    1.4334539661    0.9975283638
}

set {
  basis cc-pvdz
  reference rhf
  e_convergence 10
  d_convergence 10
  r_convergence 8
  maxiter 300
  freeze_core True
}

e, wfn = energy('ccsd(t)', return_wfn = True)
psi4.print_out('Giraffe The Energy is %.12f \n'%(e))
--------------------------------------------------------------------------

    Molecular point group: c2v

    Geometry (in Bohr), charge = 0, multiplicity = 1:

       Center              X                  Y                   Z               Mass
    ------------   -----------------  -----------------  -----------------  -----------------
         H            0.000000000000    -1.433453966100     1.000198299836     1.007825032230
         O            0.000000000000     0.000000000000    -0.126043171564    15.994914619570
         H           -0.000000000000     1.433453966100     1.000198299836     1.007825032230

  Charge       = 0
  Multiplicity = 1
  Basis Set: CC-PVDZ
    Blend: CC-PVDZ

    Orbital Energies [Eh]
    ---------------------

    Doubly Occupied:

       1A1   -20.552190     2A1    -1.333604     1B2    -0.693782
       3A1    -0.566889     1B1    -0.492924

  @RHF Final Energy:   -76.02634718430167

   => Energetics <=

    Nuclear Repulsion Energy =              9.1257064632955576
    One-Electron Energy =                -123.0253301092867702
    Two-Electron Energy =                  37.8732764616895352
    Total Energy =                        -76.0263471843016703

  Dipole Moment: [D]
     X:     0.0000      Y:     0.0000      Z:     2.0760     Total:     2.0760

      * MP2 total energy                      =  -76.228585417774994
      * CCSD total energy                     =  -76.238147215188206
      * CCSD(T) total energy                  =  -76.241224114216166
*** Psi4 exiting successfully. Buy a developer a beer!
