                               Psi4 1.4a2.dev629

  ==> Input File <==

--------------------------------------------------------------------------
# o-Benzyne preliminary computations

memory 14 gb

molecule {
  0 1
  units bohr
 C   -1.3757718088   -0.0233062860    0.0000003883
 O    1.3049761808    0.1240762561    0.0000002375
 H   -2.0799228375    1.9099208458   -0.0000797355
 H   -2.1089956131   -0.9788520815    1.6819853789
 H   -2.1089882200   -0.9789836184   -1.6819133017
 H    1.9449781386   -1.5829872361   -0.0000013774
}

set {
  basis cc-pvtz
  reference rhf
  e_convergence 10
  d_convergence 10
  r_convergence 8
  maxiter 300
  freeze_core True
}

e, wfn = energy('ccsd(t)', return_wfn = True)
psi4.print_out('Giraffe The Energy is %.12f \n'%(e))
--------------------------------------------------------------------------

    Molecular point group: c1

    Geometry (in Bohr), charge = 0, multiplicity = 1:

       Center              X                  Y                   Z               Mass
    ------------   -----------------  -----------------  -----------------  -----------------
         C           -1.375045233669    -0.025218773614     0.000000408534    12.000000000000
         O            1.305702755931     0.122163768486     0.000000257734    15.994914619570
         H           -2.079196262369     1.908008358186    -0.000079715266     1.007825032230
         H           -2.108269037969    -0.980764569114     1.681985399134     1.007825032230
         H           -2.108261644869    -0.980896106014    -1.681913281466     1.007825032230
         H            1.945704713731    -1.584899723714    -0.000001357166     1.007825032230

  Charge       = 0
  Multiplicity = 1
  Basis Set: CC-PVTZ
    Blend: CC-PVTZ

    Orbital Energies [Eh]
    ---------------------

    Doubly Occupied:

       1A    -20.553123     2A    -11.269673     3A     -1.352929
       4A     -0.922565     5A     -0.686844     6A     -0.617570
       7A     -0.589876     8A     -0.501693     9A     -0.448988

  @RHF Final Energy:  -115.08887497443203

   => Energetics <=

    Nuclear Repulsion Energy =             40.2817118575107074
    One-Electron Energy =                -236.8546519709098845
    Two-Electron Energy =                  81.4840651389671393
    Total Energy =                       -115.0888749744320307

  Dipole Moment: [D]
     X:    -0.9801      Y:    -1.5000      Z:    -0.0000     Total:     1.7918

      * MP2 total energy                      = -115.517423568408063
      * CCSD total energy                     = -115.535943796450184
      * CCSD(T) total energy                  = -115.550760064098611
*** Psi4 exiting successfully. Buy a developer a beer!
