                               Psi4 1.4a2.dev629

  ==> Input File <==

--------------------------------------------------------------------------
# o-Benzyne preliminary computations

memory 14 gb

molecule {
  0 1
  units bohr
 H    0.0000000000   -1.4167936973    0.9969121606
 O    0.0000000000    0.0000000000   -0.1274807012
 H    0.0000000000    1.4167936973    0.9969121606
}

set {
  basis cc-pvdz
  reference rhf
  e_convergence 10
  d_convergence 10
  r_convergence 8
  maxiter 300
  freeze_core True
}

e, wfn = energy('ccsd(t)', return_wfn = True)
psi4.print_out('Giraffe The Energy is %.12f \n'%(e))
--------------------------------------------------------------------------

    Molecular point group: c2v

    Geometry (in Bohr), charge = 0, multiplicity = 1:

       Center              X                  Y                   Z               Mass
    ------------   -----------------  -----------------  -----------------  -----------------
         H            0.000000000000    -1.416793697300     0.998556577146     1.007825032230
         O            0.000000000000     0.000000000000    -0.125836284654    15.994914619570
         H           -0.000000000000     1.416793697300     0.998556577146     1.007825032230

  Charge       = 0
  Multiplicity = 1
  Basis Set: CC-PVDZ
    Blend: CC-PVDZ

    Orbital Energies [Eh]
    ---------------------

    Doubly Occupied:

       1A1   -20.551163     2A1    -1.337858     1B2    -0.696689
       3A1    -0.569441     1B1    -0.493656

  @RHF Final Energy:   -76.02677017703419

   => Energetics <=

    Nuclear Repulsion Energy =              9.1988149807394279
    One-Electron Energy =                -123.1535556540223837
    Two-Electron Energy =                  37.9279704962487756
    Total Energy =                        -76.0267701770341802

  Dipole Moment: [D]
     X:     0.0000      Y:     0.0000      Z:     2.0772     Total:     2.0772

      * MP2 total energy                      =  -76.228531380229413
      * CCSD total energy                     =  -76.238081388272704
      * CCSD(T) total energy                  =  -76.241128969641053
*** Psi4 exiting successfully. Buy a developer a beer!
