                               Psi4 1.4a2.dev629

  ==> Input File <==

--------------------------------------------------------------------------
# o-Benzyne preliminary computations

memory 14 gb

molecule {
  0 1
  units bohr
 H    0.0000000000   -1.4236157650    0.9933244979
 O    0.0000000000   -0.0000000000   -0.1203053757
 H    0.0000000000    1.4236157650    0.9933244979
}

set {
  basis 6-31g*
  reference rhf
  e_convergence 10
  d_convergence 10
  r_convergence 8
  maxiter 300
  freeze_core True
}

e, wfn = energy('b3lyp', return_wfn = True)
psi4.print_out('Giraffe The Energy is %.12f \n'%(e))
--------------------------------------------------------------------------

    Molecular point group: c2v

    Geometry (in Bohr), charge = 0, multiplicity = 1:

       Center              X                  Y                   Z               Mass
    ------------   -----------------  -----------------  -----------------  -----------------
         H            0.000000000000    -1.423615765000     0.988998127406     1.007825032230
         O            0.000000000000     0.000000000000    -0.124631746194    15.994914619570
         H           -0.000000000000     1.423615765000     0.988998127406     1.007825032230

  Charge       = 0
  Multiplicity = 1
  Basis Set: 6-31G*
    Blend: 6-31G*
  Basis Set: (6-31G* AUX)
    Blend: CC-PVDZ-JKFIT

    Orbital Energies [Eh]
    ---------------------

    Doubly Occupied:

       1A1   -19.135904     2A1    -1.003005     1B2    -0.522253
       3A1    -0.372474     1B1    -0.291995

  @DF-RKS Final Energy:   -76.40867914227660

   => Energetics <=

    Nuclear Repulsion Energy =              9.2034987967335340
    One-Electron Energy =                -123.1427532519711576
    Two-Electron Energy =                  45.0950101145540430
    DFT Exchange-Correlation Energy =      -7.5644348015930296
    Empirical Dispersion Energy =           0.0000000000000000
    VV10 Nonlocal Energy =                  0.0000000000000000
    Total Energy =                        -76.4086791422766112

  Dipole Moment: [D]
     X:     0.0000      Y:     0.0000      Z:     2.0870     Total:     2.0870

*** Psi4 exiting successfully. Buy a developer a beer!
