                               Psi4 1.4a2.dev629

  ==> Input File <==

--------------------------------------------------------------------------
# o-Benzyne preliminary computations

memory 14 gb

molecule {
  0 1
  units bohr
 H    0.0000000000   -1.4261040262    0.9952752989
 O    0.0000000000    0.0049657576   -0.1202980606
 H    0.0000000000    1.4211382686    0.9913663817
}

set {
  basis cc-pvdz
  reference rhf
  e_convergence 10
  d_convergence 10
  r_convergence 8
  maxiter 300
  freeze_core True
}

e, wfn = energy('ccsd(t)', return_wfn = True)
psi4.print_out('Giraffe The Energy is %.12f \n'%(e))
--------------------------------------------------------------------------

    Molecular point group: cs

    Geometry (in Bohr), charge = 0, multiplicity = 1:

       Center              X                  Y                   Z               Mass
    ------------   -----------------  -----------------  -----------------  -----------------
         H            1.430236170601    -0.990942841315     0.000000000000     1.007825032230
         O           -0.000833613199     0.124630518185     0.000000000000    15.994914619570
         H           -1.417006124199    -0.987033924115     0.000000000000     1.007825032230

  Charge       = 0
  Multiplicity = 1
  Basis Set: CC-PVDZ
    Blend: CC-PVDZ

    Orbital Energies [Eh]
    ---------------------

    Doubly Occupied:

       1Ap   -20.550604     2Ap    -1.337575     3Ap    -0.698613
       4Ap    -0.567911     1App   -0.493417

  @RHF Final Energy:   -76.02680185801245

   => Energetics <=

    Nuclear Repulsion Energy =              9.2036323713819570
    One-Electron Energy =                -123.1646275050615174
    Two-Electron Energy =                  37.9341932756671198
    Total Energy =                        -76.0268018580124476

  Dipole Moment: [D]
     X:     0.0089      Y:    -2.0644      Z:     0.0000     Total:     2.0644

      * MP2 total energy                      =  -76.228429589975562
      * CCSD total energy                     =  -76.237989402657803
      * CCSD(T) total energy                  =  -76.241025456488742
*** Psi4 exiting successfully. Buy a developer a beer!
