                               Psi4 1.4a2.dev629

  ==> Input File <==

--------------------------------------------------------------------------
# o-Benzyne preliminary computations

memory 14 gb

molecule {
  0 1
  units bohr
 C   -1.3750747331   -0.0242791164   -0.0008375267
 O    1.3060151141    0.1206925627   -0.0035768679
 H   -2.0778667241    1.9096126704    0.0012064973
 H   -2.1072416872   -0.9803958289    1.6812312903
 H   -2.1107323815   -0.9782815831   -1.6826411494
 H    1.9411762517   -1.5774808248    0.0046093465
}

set {
  basis cc-pvtz
  reference rhf
  e_convergence 10
  d_convergence 10
  r_convergence 8
  maxiter 300
  freeze_core True
}

e, wfn = energy('ccsd(t)', return_wfn = True)
psi4.print_out('Giraffe The Energy is %.12f \n'%(e))
--------------------------------------------------------------------------

    Molecular point group: c1

    Geometry (in Bohr), charge = 0, multiplicity = 1:

       Center              X                  Y                   Z               Mass
    ------------   -----------------  -----------------  -----------------  -----------------
         C           -1.375073593821    -0.024274261031     0.001124039969    12.000000000000
         O            1.306016253379     0.120697418069    -0.001615301231    15.994914619570
         H           -2.077865584821     1.909617525769     0.003168063969     1.007825032230
         H           -2.107240547921    -0.980390973531     1.683192856969     1.007825032230
         H           -2.110731242221    -0.978276727731    -1.680679582731     1.007825032230
         H            1.941177390979    -1.577475969431     0.006570913169     1.007825032230

  Charge       = 0
  Multiplicity = 1
  Basis Set: CC-PVTZ
    Blend: CC-PVTZ

    Orbital Energies [Eh]
    ---------------------

    Doubly Occupied:

       1A    -20.552620     2A    -11.269754     3A     -1.354102
       4A     -0.923076     5A     -0.687873     6A     -0.617659
       7A     -0.590046     8A     -0.502057     9A     -0.449146

  @RHF Final Energy:  -115.08911473972391

   => Energetics <=

    Nuclear Repulsion Energy =             40.3077401977467460
    One-Electron Energy =                -236.9010446034350821
    Two-Electron Energy =                  81.5041896659644323
    Total Energy =                       -115.0891147397239109

  Dipole Moment: [D]
     X:    -0.9842      Y:    -1.4950      Z:     0.0091     Total:     1.7899

      * MP2 total energy                      = -115.517448975808293
      * CCSD total energy                     = -115.535996291488516
      * CCSD(T) total energy                  = -115.550786455058628
*** Psi4 exiting successfully. Buy a developer a beer!
