                               Psi4 1.4a2.dev629

  ==> Input File <==

--------------------------------------------------------------------------
# o-Benzyne preliminary computations

memory 14 gb

molecule {
  0 1
  units bohr
 H   -0.0000000000   -1.4167936339    0.9969121510
 O    0.0000000000    0.0000000000   -0.1274806819
 H    0.0000000000    1.4167936339    0.9969121510
}

set {
  basis 6-31g*
  reference rhf
  e_convergence 10
  d_convergence 10
  r_convergence 8
  maxiter 300
  freeze_core True
}

e, wfn = energy('b3lyp', return_wfn = True)
psi4.print_out('Giraffe The Energy is %.12f \n'%(e))
--------------------------------------------------------------------------

    Molecular point group: c2v

    Geometry (in Bohr), charge = 0, multiplicity = 1:

       Center              X                  Y                   Z               Mass
    ------------   -----------------  -----------------  -----------------  -----------------
         H            0.000000000000    -1.416793633900     0.998556551480     1.007825032230
         O            0.000000000000     0.000000000000    -0.125836281420    15.994914619570
         H           -0.000000000000     1.416793633900     0.998556551480     1.007825032230

  Charge       = 0
  Multiplicity = 1
  Basis Set: 6-31G*
    Blend: 6-31G*
  Basis Set: (6-31G* AUX)
    Blend: CC-PVDZ-JKFIT

    Orbital Energies [Eh]
    ---------------------

    Doubly Occupied:

       1A1   -19.136441     2A1    -1.003435     1B2    -0.520591
       3A1    -0.374082     1B1    -0.292216

  @DF-RKS Final Energy:   -76.40868520059618

   => Energetics <=

    Nuclear Repulsion Energy =              9.1988153272691040
    One-Electron Energy =                -123.1314979977233008
    Two-Electron Energy =                  45.0878908895092820
    DFT Exchange-Correlation Energy =      -7.5638934196512668
    Empirical Dispersion Energy =           0.0000000000000000
    VV10 Nonlocal Energy =                  0.0000000000000000
    Total Energy =                        -76.4086852005961816

  Dipole Moment: [D]
     X:     0.0000      Y:     0.0000      Z:     2.0996     Total:     2.0996

*** Psi4 exiting successfully. Buy a developer a beer!
