                               Psi4 1.4a2.dev629

  ==> Input File <==

--------------------------------------------------------------------------
# o-Benzyne preliminary computations

memory 14 gb

molecule {
  0 1
  units bohr
 C   -1.3743760239   -0.0252475625    0.0000003118
 O    1.3070529489    0.1173223138    0.0000003625
 H   -2.0758236662    1.9093048008   -0.0000800845
 H   -2.1089819415   -0.9796920227    1.6819623932
 H   -2.1089752743   -0.9798229656   -1.6818901501
 H    1.9373797970   -1.5719966838   -0.0000012427
}

set {
  basis cc-pvtz
  reference rhf
  e_convergence 10
  d_convergence 10
  r_convergence 8
  maxiter 300
  freeze_core True
}

e, wfn = energy('ccsd(t)', return_wfn = True)
psi4.print_out('Giraffe The Energy is %.12f \n'%(e))
--------------------------------------------------------------------------

    Molecular point group: c1

    Geometry (in Bohr), charge = 0, multiplicity = 1:

       Center              X                  Y                   Z               Mass
    ------------   -----------------  -----------------  -----------------  -----------------
         C           -1.375100367079    -0.023333160482     0.000000299792    12.000000000000
         O            1.306328605721     0.119236715818     0.000000350492    15.994914619570
         H           -2.076548009379     1.911219202818    -0.000080096508     1.007825032230
         H           -2.109706284679    -0.977777620682     1.681962381192     1.007825032230
         H           -2.109699617479    -0.977908563582    -1.681890162108     1.007825032230
         H            1.936655453821    -1.570082281782    -0.000001254708     1.007825032230

  Charge       = 0
  Multiplicity = 1
  Basis Set: CC-PVTZ
    Blend: CC-PVTZ

    Orbital Energies [Eh]
    ---------------------

    Doubly Occupied:

       1A    -20.552112     2A    -11.269836     3A     -1.355298
       4A     -0.923594     5A     -0.688904     6A     -0.617750
       7A     -0.590219     8A     -0.502418     9A     -0.449307

  @RHF Final Energy:  -115.08930031836245

   => Energetics <=

    Nuclear Repulsion Energy =             40.3340580760696668
    One-Electron Energy =                -236.9478420922616237
    Two-Electron Energy =                  81.5244836978295240
    Total Energy =                       -115.0893003183624472

  Dipole Moment: [D]
     X:    -0.9884      Y:    -1.4900      Z:    -0.0000     Total:     1.7880

      * MP2 total energy                      = -115.517420459023100
      * CCSD total energy                     = -115.535995240000062
      * CCSD(T) total energy                  = -115.550759420799423
*** Psi4 exiting successfully. Buy a developer a beer!
