                               Psi4 1.4a2.dev629

  ==> Input File <==

--------------------------------------------------------------------------
# o-Benzyne preliminary computations

memory 14 gb

molecule {
  0 1
  units bohr
 C   -1.3762965432   -0.0251383213    0.0000006313
 O    1.3051472418    0.1204536465    0.0000007188
 H   -2.0780268391    1.9062646025   -0.0000803862
 H   -2.1075337482   -0.9769718569    1.6765243040
 H   -2.1075267664   -0.9771021581   -1.6764520071
 H    1.9405124950   -1.5776380327   -0.0000016710
}

set {
  basis cc-pvtz
  reference rhf
  e_convergence 10
  d_convergence 10
  r_convergence 8
  maxiter 300
  freeze_core True
}

e, wfn = energy('ccsd(t)', return_wfn = True)
psi4.print_out('Giraffe The Energy is %.12f \n'%(e))
--------------------------------------------------------------------------

    Molecular point group: c1

    Geometry (in Bohr), charge = 0, multiplicity = 1:

       Center              X                  Y                   Z               Mass
    ------------   -----------------  -----------------  -----------------  -----------------
         C           -1.375469916722    -0.024726761952     0.000000342909    12.000000000000
         O            1.305973868278     0.120865205848     0.000000430409    15.994914619570
         H           -2.077200212622     1.906676161848    -0.000080674591     1.007825032230
         H           -2.106707121722    -0.976560297552     1.676524015609     1.007825032230
         H           -2.106700139922    -0.976690598752    -1.676452295491     1.007825032230
         H            1.941339121478    -1.577226473352    -0.000001959391     1.007825032230

  Charge       = 0
  Multiplicity = 1
  Basis Set: CC-PVTZ
    Blend: CC-PVTZ

    Orbital Energies [Eh]
    ---------------------

    Doubly Occupied:

       1A    -20.552409     2A    -11.268665     3A     -1.353895
       4A     -0.923989     5A     -0.688040     6A     -0.618346
       7A     -0.590005     8A     -0.502354     9A     -0.449426

  @RHF Final Energy:  -115.08919753167248

   => Energetics <=

    Nuclear Repulsion Energy =             40.3372761102347823
    One-Electron Energy =                -236.9586852982760377
    Two-Electron Energy =                  81.5322116563687587
    Total Energy =                       -115.0891975316724825

  Dipole Moment: [D]
     X:    -0.9898      Y:    -1.4977      Z:    -0.0000     Total:     1.7952

      * MP2 total energy                      = -115.517468418148354
      * CCSD total energy                     = -115.535997892882321
      * CCSD(T) total energy                  = -115.550769674184252
*** Psi4 exiting successfully. Buy a developer a beer!
