                               Psi4 1.4a2.dev629

  ==> Input File <==

--------------------------------------------------------------------------
# o-Benzyne preliminary computations

memory 14 gb

molecule {
  0 1
  units bohr
 C   -1.3754341714   -0.0218683168    0.0000000881
 O    1.3058366410    0.1216500977   -0.0000000078
 H   -2.0747653040    1.9030939976   -0.0000789421
 H   -2.1099957434   -0.9781806567    1.6834699436
 H   -2.1099880364   -0.9783129902   -1.6833981237
 H    1.9406224542   -1.5765142516   -0.0000013682
}

set {
  basis cc-pvtz
  reference rhf
  e_convergence 10
  d_convergence 10
  r_convergence 8
  maxiter 300
  freeze_core True
}

e, wfn = energy('ccsd(t)', return_wfn = True)
psi4.print_out('Giraffe The Energy is %.12f \n'%(e))
--------------------------------------------------------------------------

    Molecular point group: c1

    Geometry (in Bohr), charge = 0, multiplicity = 1:

       Center              X                  Y                   Z               Mass
    ------------   -----------------  -----------------  -----------------  -----------------
         C           -1.375226145326    -0.023138997559     0.000000326167    12.000000000000
         O            1.306044667074     0.120379416941     0.000000230267    15.994914619570
         H           -2.074557277926     1.901823316841    -0.000078704033     1.007825032230
         H           -2.109787717326    -0.979451337459     1.683470181667     1.007825032230
         H           -2.109780010326    -0.979583670959    -1.683397885633     1.007825032230
         H            1.940830480274    -1.577784932359    -0.000001130133     1.007825032230

  Charge       = 0
  Multiplicity = 1
  Basis Set: CC-PVTZ
    Blend: CC-PVTZ

    Orbital Energies [Eh]
    ---------------------

    Doubly Occupied:

       1A    -20.552555     2A    -11.269411     3A     -1.354055
       4A     -0.923471     5A     -0.687798     6A     -0.617333
       7A     -0.590725     8A     -0.502478     9A     -0.448966

  @RHF Final Energy:  -115.08913482473204

   => Energetics <=

    Nuclear Repulsion Energy =             40.3182401096348357
    One-Electron Energy =                -236.9211673034876924
    Two-Electron Energy =                  81.5137923691208073
    Total Energy =                       -115.0891348247320423

  Dipole Moment: [D]
     X:    -0.9858      Y:    -1.4897      Z:    -0.0000     Total:     1.7863

      * MP2 total energy                      = -115.517443968261333
      * CCSD total energy                     = -115.535985056277951
      * CCSD(T) total energy                  = -115.550769464451562
*** Psi4 exiting successfully. Buy a developer a beer!
