                               Psi4 1.4a2.dev629

  ==> Input File <==

--------------------------------------------------------------------------
# o-Benzyne preliminary computations

memory 14 gb

molecule {
  0 1
  units bohr
 C   -1.3762587014   -0.0214958694   -0.0000006023
 O    1.3051042735    0.1165287217   -0.0000006752
 H   -2.0813001085    1.9116787902   -0.0000777304
 H   -2.1096790114   -0.9791123588    1.6806707538
 H   -2.1096703219   -0.9792460323   -1.6805991855
 H    1.9480797096   -1.5784853714   -0.0000009704
}

set {
  basis cc-pvtz
  reference rhf
  e_convergence 10
  d_convergence 10
  r_convergence 8
  maxiter 300
  freeze_core True
}

e, wfn = energy('ccsd(t)', return_wfn = True)
psi4.print_out('Giraffe The Energy is %.12f \n'%(e))
--------------------------------------------------------------------------

    Molecular point group: c1

    Geometry (in Bohr), charge = 0, multiplicity = 1:

       Center              X                  Y                   Z               Mass
    ------------   -----------------  -----------------  -----------------  -----------------
         C           -1.375424955565    -0.020497767710     0.000000185045    12.000000000000
         O            1.305938019335     0.117526823390     0.000000112145    15.994914619570
         H           -2.080466362665     1.912676891890    -0.000076943055     1.007825032230
         H           -2.108845265565    -0.978114257110     1.680671541145     1.007825032230
         H           -2.108836576065    -0.978247930610    -1.680598398155     1.007825032230
         H            1.948913455435    -1.577487269710    -0.000000183055     1.007825032230

  Charge       = 0
  Multiplicity = 1
  Basis Set: CC-PVTZ
    Blend: CC-PVTZ

    Orbital Energies [Eh]
    ---------------------

    Doubly Occupied:

       1A    -20.552355     2A    -11.269802     3A     -1.353798
       4A     -0.923229     5A     -0.687801     6A     -0.617423
       7A     -0.590490     8A     -0.501699     9A     -0.448892

  @RHF Final Energy:  -115.08917265140821

   => Energetics <=

    Nuclear Repulsion Energy =             40.3030657676638597
    One-Electron Energy =                -236.8935007763831209
    Two-Electron Energy =                  81.5012623573110488
    Total Energy =                       -115.0891726514082052

  Dipole Moment: [D]
     X:    -0.9798      Y:    -1.4912      Z:    -0.0000     Total:     1.7843

      * MP2 total energy                      = -115.517437246837190
      * CCSD total energy                     = -115.535996447611765
      * CCSD(T) total energy                  = -115.550778559922819
*** Psi4 exiting successfully. Buy a developer a beer!
