                               Psi4 1.4a2.dev629

  ==> Input File <==

--------------------------------------------------------------------------
# o-Benzyne preliminary computations

memory 14 gb

molecule {
  0 1
  units bohr
 H    0.0000000000   -1.4194801358    0.9984183586
 O    0.0000000000    0.0000001566   -0.1304929739
 H    0.0000000000    1.4194799792    0.9984182353
}

set {
  basis cc-pvtz
  reference rhf
  e_convergence 10
  d_convergence 10
  r_convergence 8
  maxiter 300
  freeze_core True
}

e, wfn = energy('ccsd(t)', return_wfn = True)
psi4.print_out('Giraffe The Energy is %.12f \n'%(e))
--------------------------------------------------------------------------

    Molecular point group: cs

    Geometry (in Bohr), charge = 0, multiplicity = 1:

       Center              X                  Y                   Z               Mass
    ------------   -----------------  -----------------  -----------------  -----------------
         H            1.419480266111    -1.002569370669     0.000000000000     1.007825032230
         O           -0.000000026289     0.126341961831     0.000000000000    15.994914619570
         H           -1.419479848889    -1.002569247369     0.000000000000     1.007825032230

  Charge       = 0
  Multiplicity = 1
  Basis Set: CC-PVTZ
    Blend: CC-PVTZ

    Orbital Energies [Eh]
    ---------------------

    Doubly Occupied:

       1Ap   -20.555923     2Ap    -1.345514     3Ap    -0.705523
       4Ap    -0.580236     1App   -0.504772

  @RHF Final Energy:   -76.05686040539339

   => Energetics <=

    Nuclear Repulsion Energy =              9.1741795432638042
    One-Electron Energy =                -123.0781448361224477
    Two-Electron Energy =                  37.8471048874652425
    Total Energy =                        -76.0568604053933939

  Dipole Moment: [D]
     X:     0.0000      Y:    -2.0509      Z:     0.0000     Total:     2.0509

      * MP2 total energy                      =  -76.318651195512132
      * CCSD total energy                     =  -76.324528221249324
      * CCSD(T) total energy                  =  -76.332208405394155
*** Psi4 exiting successfully. Buy a developer a beer!
