                               Psi4 1.4a2.dev629

  ==> Input File <==

--------------------------------------------------------------------------
# o-Benzyne preliminary computations

memory 14 gb

molecule {
  0 1
  units bohr
 C   -1.3737812963   -0.0268763234    0.0000005640
 O    1.2997105178    0.1198071736    0.0000000763
 H   -2.0719043617    1.9088696916   -0.0000804118
 H   -2.1116860834   -0.9788670894    1.6822705898
 H   -2.1116803866   -0.9789972245   -1.6821984585
 H    1.9456174503   -1.5740683481   -0.0000007698
}

set {
  basis cc-pvtz
  reference rhf
  e_convergence 10
  d_convergence 10
  r_convergence 8
  maxiter 300
  freeze_core True
}

e, wfn = energy('ccsd(t)', return_wfn = True)
psi4.print_out('Giraffe The Energy is %.12f \n'%(e))
--------------------------------------------------------------------------

    Molecular point group: c1

    Geometry (in Bohr), charge = 0, multiplicity = 1:

       Center              X                  Y                   Z               Mass
    ------------   -----------------  -----------------  -----------------  -----------------
         C           -1.371273776971    -0.025565713981     0.000000599368    12.000000000000
         O            1.302218037129     0.121117783019     0.000000111668    15.994914619570
         H           -2.069396842371     1.910180301019    -0.000080376432     1.007825032230
         H           -2.109178564071    -0.977556479981     1.682270625168     1.007825032230
         H           -2.109172867271    -0.977686615081    -1.682198423132     1.007825032230
         H            1.948124969629    -1.572757738681    -0.000000734432     1.007825032230

  Charge       = 0
  Multiplicity = 1
  Basis Set: CC-PVTZ
    Blend: CC-PVTZ

    Orbital Energies [Eh]
    ---------------------

    Doubly Occupied:

       1A    -20.552567     2A    -11.269369     3A     -1.355377
       4A     -0.923026     5A     -0.688831     6A     -0.618135
       7A     -0.590851     8A     -0.501345     9A     -0.448822

  @RHF Final Energy:  -115.08923550597049

   => Energetics <=

    Nuclear Repulsion Energy =             40.3661393076166348
    One-Electron Energy =                -237.0141027500337145
    Two-Electron Energy =                  81.5587279364465871
    Total Energy =                       -115.0892355059704926

  Dipole Moment: [D]
     X:    -0.9606      Y:    -1.4939      Z:    -0.0000     Total:     1.7760

      * MP2 total energy                      = -115.517449810398475
      * CCSD total energy                     = -115.536009078448899
      * CCSD(T) total energy                  = -115.550774404638631
*** Psi4 exiting successfully. Buy a developer a beer!
