                               Psi4 1.4a2.dev629

  ==> Input File <==

--------------------------------------------------------------------------
# o-Benzyne preliminary computations

memory 14 gb

molecule {
  0 1
  units bohr
 C   -1.3785479283   -0.0244565090    0.0000003634
 O    1.3078967080    0.1179107291    0.0000002895
 H   -2.0777614086    1.9112709095   -0.0000799351
 H   -2.1152550133   -0.9786536814    1.6820061643
 H   -2.1152482328   -0.9787849372   -1.6819339738
 H    1.9551917150   -1.5774186310   -0.0000013183
  no_reorient
  no_com
}

set {
  basis 6-31g*
  reference rhf
  e_convergence 10
  d_convergence 10
  r_convergence 8
  maxiter 300
  dft_spherical_points 1202
  dft_radial_points 99
  freeze_core True
}

#gradient('ccsd(t)')
gradient('b3lyp')
--------------------------------------------------------------------------

    Molecular point group: c1
  Charge       = 0
  Multiplicity = 1
  Basis Set: 6-31G*
    Blend: 6-31G*
  Basis Set: (6-31G* AUX)
    Blend: CC-PVDZ-JKFIT

    Orbital Energies [Eh]
    ---------------------

    Doubly Occupied:

       1A    -19.138338     2A    -10.223378     3A     -1.009884
       4A     -0.680326     5A     -0.502074     6A     -0.435091
       7A     -0.419482     8A     -0.330184     9A     -0.264366

  @DF-RKS Final Energy:  -115.71429795799766

   => Energetics <=

    Nuclear Repulsion Energy =             40.2489990626645877
    One-Electron Energy =                -236.9036786516905693
    Two-Electron Energy =                  93.4910155779986951
    DFT Exchange-Correlation Energy =     -12.5506339469703665
    Empirical Dispersion Energy =           0.0000000000000000
    VV10 Nonlocal Energy =                  0.0000000000000000
    Total Energy =                       -115.7142979579976583

  Dipole Moment: [D]
     X:    -0.8453      Y:    -1.4827      Z:    -0.0000     Total:     1.7067

    Molecular point group: c1

    Geometry (in Bohr), charge = 0, multiplicity = 1:

       Center              X                  Y                   Z               Mass
    ------------   -----------------  -----------------  -----------------  -----------------
         C           -1.378547928300    -0.024456509000     0.000000363400    12.000000000000
         O            1.307896708000     0.117910729100     0.000000289500    15.994914619570
         H           -2.077761408600     1.911270909500    -0.000079935100     1.007825032230
         H           -2.115255013300    -0.978653681400     1.682006164300     1.007825032230
         H           -2.115248232800    -0.978784937200    -1.681933973800     1.007825032230
         H            1.955191715000    -1.577418631000    -0.000001318300     1.007825032230

  Basis Set: 6-31G*
    Blend: 6-31G*
  Basis Set: (6-31G* AUX)
    Blend: CC-PVDZ-JKFIT

  -Total Gradient:
     Atom            X                  Y                   Z
    ------   -----------------  -----------------  -----------------
       1       -0.006652663996     0.000143780380     0.000000242903
       2        0.004916441288    -0.008697906817     0.000000250543
       3        0.000544578360    -0.002658044770    -0.000000096826
       4        0.001795379732     0.001697157855    -0.002784150169
       5        0.001795333901     0.001697354377     0.002783971333
       6       -0.002399152113     0.007817722706    -0.000000217788

*** Psi4 exiting successfully. Buy a developer a beer!
