                               Psi4 1.4a2.dev629

  ==> Input File <==

--------------------------------------------------------------------------
# o-Benzyne preliminary computations

memory 14 gb

molecule {
  0 1
  units bohr
 H    0.0000000000   -1.4192896310    0.9988688684
 O    0.0000000000    0.0049809420   -0.1274732469
 H    0.0000000000    1.4143086889    0.9949479985
}

set {
  basis cc-pvdz
  reference rhf
  e_convergence 10
  d_convergence 10
  r_convergence 8
  maxiter 300
  freeze_core True
}

e, wfn = energy('ccsd(t)', return_wfn = True)
psi4.print_out('Giraffe The Energy is %.12f \n'%(e))
--------------------------------------------------------------------------

    Molecular point group: cs

    Geometry (in Bohr), charge = 0, multiplicity = 1:

       Center              X                  Y                   Z               Mass
    ------------   -----------------  -----------------  -----------------  -----------------
         H            1.423434410755    -1.000507082016     0.000000000000     1.007825032230
         O           -0.000836162245     0.125835033284     0.000000000000    15.994914619570
         H           -1.410163909145    -0.996586212116     0.000000000000     1.007825032230

  Charge       = 0
  Multiplicity = 1
  Basis Set: CC-PVDZ
    Blend: CC-PVDZ

    Orbital Energies [Eh]
    ---------------------

    Doubly Occupied:

       1Ap   -20.551161     2Ap    -1.337872     3Ap    -0.696695
       4Ap    -0.569436     1App   -0.493658

  @RHF Final Energy:   -76.02674108430675

   => Energetics <=

    Nuclear Repulsion Energy =              9.1989484785473863
    One-Electron Energy =                -123.1537349013809575
    Two-Electron Energy =                  37.9280453385268217
    Total Energy =                        -76.0267410843067353

  Dipole Moment: [D]
     X:     0.0088      Y:    -2.0771      Z:     0.0000     Total:     2.0772

      * MP2 total energy                      =  -76.228501916634826
      * CCSD total energy                     =  -76.238052214735191
      * CCSD(T) total energy                  =  -76.241099834540393
*** Psi4 exiting successfully. Buy a developer a beer!
