                               Psi4 1.4a2.dev629

  ==> Input File <==

--------------------------------------------------------------------------
# o-Benzyne preliminary computations

memory 14 gb

molecule {
  0 1
  units bohr
 H   -0.0000000000   -1.4194737794    0.9984168683
 O    0.0000000000    0.0000000000   -0.1304901165
 H    0.0000000000    1.4194737794    0.9984168683
}

set {
  basis cc-pvtz
  reference rhf
  e_convergence 10
  d_convergence 10
  r_convergence 8
  maxiter 300
  freeze_core True
}

e, wfn = energy('ccsd(t)', return_wfn = True)
psi4.print_out('Giraffe The Energy is %.12f \n'%(e))
--------------------------------------------------------------------------

    Molecular point group: c2v

    Geometry (in Bohr), charge = 0, multiplicity = 1:

       Center              X                  Y                   Z               Mass
    ------------   -----------------  -----------------  -----------------  -----------------
         H            0.000000000000    -1.419473779400     1.002565502642     1.007825032230
         O            0.000000000000     0.000000000000    -0.126341482158    15.994914619570
         H           -0.000000000000     1.419473779400     1.002565502642     1.007825032230

  Charge       = 0
  Multiplicity = 1
  Basis Set: CC-PVTZ
    Blend: CC-PVTZ

    Orbital Energies [Eh]
    ---------------------

    Doubly Occupied:

       1A1   -20.555922     2A1    -1.345516     1B2    -0.705525
       3A1    -0.580237     1B1    -0.504772

  @RHF Final Energy:   -76.05686069825951

   => Energetics <=

    Nuclear Repulsion Energy =              9.1742179788088833
    One-Electron Energy =                -123.0782129519480037
    Two-Electron Energy =                  37.8471342748796076
    Total Energy =                        -76.0568606982595128

  Dipole Moment: [D]
     X:     0.0000      Y:     0.0000      Z:     2.0509     Total:     2.0509

      * MP2 total energy                      =  -76.318651200528905
      * CCSD total energy                     =  -76.324528253123503
      * CCSD(T) total energy                  =  -76.332208404278575
*** Psi4 exiting successfully. Buy a developer a beer!
