                               Psi4 1.4a2.dev629

  ==> Input File <==

--------------------------------------------------------------------------
# o-Benzyne preliminary computations

memory 14 gb

molecule {
  0 1
  units bohr
 C   -1.3750717938   -0.0242768071   -0.0025901240
 O    1.3060139438    0.1207006434   -0.0010621174
 H   -2.0778741984    1.9096124029   -0.0023808241
 H   -2.1115254242   -0.9822020647    1.6853161486
 H   -2.1064402108   -0.9764735445   -1.6785642180
 H    1.9411735235   -1.5774927500   -0.0007272751
}

set {
  basis cc-pvtz
  reference rhf
  e_convergence 10
  d_convergence 10
  r_convergence 8
  maxiter 300
  freeze_core True
}

e, wfn = energy('ccsd(t)', return_wfn = True)
psi4.print_out('Giraffe The Energy is %.12f \n'%(e))
--------------------------------------------------------------------------

    Molecular point group: c1

    Geometry (in Bohr), charge = 0, multiplicity = 1:

       Center              X                  Y                   Z               Mass
    ------------   -----------------  -----------------  -----------------  -----------------
         C           -1.375071115709    -0.024276525813    -0.001203834019    12.000000000000
         O            1.306014621891     0.120700924687     0.000324172581    15.994914619570
         H           -2.077873520309     1.909612684187    -0.000994534119     1.007825032230
         H           -2.111524746109    -0.982201783413     1.686702438581     1.007825032230
         H           -2.106439532709    -0.976473263213    -1.677177928019     1.007825032230
         H            1.941174201591    -1.577492468713     0.000659014881     1.007825032230

  Charge       = 0
  Multiplicity = 1
  Basis Set: CC-PVTZ
    Blend: CC-PVTZ

    Orbital Energies [Eh]
    ---------------------

    Doubly Occupied:

       1A    -20.552621     2A    -11.269754     3A     -1.354104
       4A     -0.923083     5A     -0.687881     6A     -0.617655
       7A     -0.590048     8A     -0.502059     9A     -0.449142

  @RHF Final Energy:  -115.08909833450332

   => Energetics <=

    Nuclear Repulsion Energy =             40.3078421014777746
    One-Electron Energy =                -236.9011856993449783
    Two-Electron Energy =                  81.5042452633638845
    Total Energy =                       -115.0890983345033192

  Dipole Moment: [D]
     X:    -0.9842      Y:    -1.4950      Z:    -0.0071     Total:     1.7899

      * MP2 total energy                      = -115.517432667448219
      * CCSD total energy                     = -115.535980210102352
      * CCSD(T) total energy                  = -115.550770423972352
*** Psi4 exiting successfully. Buy a developer a beer!
