                               Psi4 1.4a2.dev629

  ==> Input File <==

--------------------------------------------------------------------------
# o-Benzyne preliminary computations

memory 14 gb

molecule {
  0 1
  units bohr
 H    0.0000000000   -1.4158069216    0.9943146957
 O    0.0000000000    0.0000000000   -0.1222857714
 H    0.0000000000    1.4158069216    0.9943146957
}

set {
  basis cc-pvdz
  reference rhf
  e_convergence 10
  d_convergence 10
  r_convergence 8
  maxiter 300
  freeze_core True
}

e, wfn = energy('ccsd(t)', return_wfn = True)
psi4.print_out('Giraffe The Energy is %.12f \n'%(e))
--------------------------------------------------------------------------

    Molecular point group: c2v

    Geometry (in Bohr), charge = 0, multiplicity = 1:

       Center              X                  Y                   Z               Mass
    ------------   -----------------  -----------------  -----------------  -----------------
         H            0.000000000000    -1.415806921600     0.991636267311     1.007825032230
         O            0.000000000000     0.000000000000    -0.124964199789    15.994914619570
         H           -0.000000000000     1.415806921600     0.991636267311     1.007825032230

  Charge       = 0
  Multiplicity = 1
  Basis Set: CC-PVDZ
    Blend: CC-PVDZ

    Orbital Energies [Eh]
    ---------------------

    Doubly Occupied:

       1A1   -20.550448     2A1    -1.339097     1B2    -0.698949
       3A1    -0.569276     1B1    -0.493744

  @RHF Final Energy:   -76.02690041927237

   => Energetics <=

    Nuclear Repulsion Energy =              9.2265761579100420
    One-Electron Energy =                -123.2039261349977153
    Two-Electron Energy =                  37.9504495578153040
    Total Energy =                        -76.0269004192723656

  Dipole Moment: [D]
     X:     0.0000      Y:     0.0000      Z:     2.0691     Total:     2.0691

      * MP2 total energy                      =  -76.228413689558693
      * CCSD total energy                     =  -76.237966380815578
      * CCSD(T) total energy                  =  -76.240996615071808
*** Psi4 exiting successfully. Buy a developer a beer!
