                               Psi4 1.4a2.dev629

  ==> Input File <==

--------------------------------------------------------------------------
# o-Benzyne preliminary computations

memory 14 gb

molecule {
  0 1
  units bohr
 H    0.0000000000   -1.4324558849    0.9949211836
 O    0.0000000000   -0.0000000000   -0.1234987471
 H    0.0000000000    1.4324558849    0.9949211836
}

set {
  basis 6-31g*
  reference rhf
  e_convergence 10
  d_convergence 10
  r_convergence 8
  maxiter 300
  freeze_core True
}

e, wfn = energy('b3lyp', return_wfn = True)
psi4.print_out('Giraffe The Energy is %.12f \n'%(e))
--------------------------------------------------------------------------

    Molecular point group: c2v

    Geometry (in Bohr), charge = 0, multiplicity = 1:

       Center              X                  Y                   Z               Mass
    ------------   -----------------  -----------------  -----------------  -----------------
         H            0.000000000000    -1.432455884900     0.993252105873     1.007825032230
         O            0.000000000000     0.000000000000    -0.125167824827    15.994914619570
         H           -0.000000000000     1.432455884900     0.993252105873     1.007825032230

  Charge       = 0
  Multiplicity = 1
  Basis Set: 6-31G*
    Blend: 6-31G*
  Basis Set: (6-31G* AUX)
    Blend: CC-PVDZ-JKFIT

    Orbital Energies [Eh]
    ---------------------

    Doubly Occupied:

       1A1   -19.136757     2A1    -1.000591     1B2    -0.520436
       3A1    -0.371897     1B1    -0.291568

  @DF-RKS Final Energy:   -76.40886582643618

   => Energetics <=

    Nuclear Repulsion Energy =              9.1530361067106334
    One-Electron Energy =                -123.0536958799113449
    Two-Electron Energy =                  45.0522548933041662
    DFT Exchange-Correlation Energy =      -7.5604609465396413
    Empirical Dispersion Energy =           0.0000000000000000
    VV10 Nonlocal Energy =                  0.0000000000000000
    Total Energy =                        -76.4088658264361840

  Dipole Moment: [D]
     X:     0.0000      Y:     0.0000      Z:     2.0872     Total:     2.0872

*** Psi4 exiting successfully. Buy a developer a beer!
