                               Psi4 1.4a2.dev629

  ==> Input File <==

--------------------------------------------------------------------------
# o-Benzyne preliminary computations

memory 14 gb

molecule {
  0 1
  units bohr
 C   -1.3745148226   -0.0251312560    0.0000003413
 O    1.3039496927    0.1212483802    0.0000002431
 H   -2.0696431984    1.9078275107   -0.0000798848
 H   -2.1115833499   -0.9809136465    1.6810031047
 H   -2.1115765869   -0.9810448194   -1.6809308546
 H    1.9396441051   -1.5721182890   -0.0000013597
  no_reorient
  no_com
}

set {
  basis 6-31g*
  reference rhf
  e_convergence 10
  d_convergence 10
  r_convergence 8
  maxiter 300
  dft_spherical_points 1202
  dft_radial_points 99
  freeze_core True
}

#gradient('ccsd(t)')
gradient('b3lyp')
--------------------------------------------------------------------------

    Molecular point group: c1
  Charge       = 0
  Multiplicity = 1
  Basis Set: 6-31G*
    Blend: 6-31G*
  Basis Set: (6-31G* AUX)
    Blend: CC-PVDZ-JKFIT

    Orbital Energies [Eh]
    ---------------------

    Doubly Occupied:

       1A    -19.138286     2A    -10.222852     3A     -1.012173
       4A     -0.680447     5A     -0.503277     6A     -0.435467
       7A     -0.419958     8A     -0.330884     9A     -0.264485

  @DF-RKS Final Energy:  -115.71423532799176

   => Energetics <=

    Nuclear Repulsion Energy =             40.3459411280398896
    One-Electron Energy =                -237.0856602070887220
    Two-Electron Energy =                  93.5795901776242118
    DFT Exchange-Correlation Energy =     -12.5541064265671416
    Empirical Dispersion Energy =           0.0000000000000000
    VV10 Nonlocal Energy =                  0.0000000000000000
    Total Energy =                       -115.7142353279917586

  Dipole Moment: [D]
     X:    -0.8390      Y:    -1.4825      Z:    -0.0000     Total:     1.7034

    Molecular point group: c1

    Geometry (in Bohr), charge = 0, multiplicity = 1:

       Center              X                  Y                   Z               Mass
    ------------   -----------------  -----------------  -----------------  -----------------
         C           -1.374514822600    -0.025131256000     0.000000341300    12.000000000000
         O            1.303949692700     0.121248380200     0.000000243100    15.994914619570
         H           -2.069643198400     1.907827510700    -0.000079884800     1.007825032230
         H           -2.111583349900    -0.980913646500     1.681003104700     1.007825032230
         H           -2.111576586900    -0.981044819400    -1.680930854600     1.007825032230
         H            1.939644105100    -1.572118289000    -0.000001359700     1.007825032230

  Basis Set: 6-31G*
    Blend: 6-31G*
  Basis Set: (6-31G* AUX)
    Blend: CC-PVDZ-JKFIT

  -Total Gradient:
     Atom            X                  Y                   Z
    ------   -----------------  -----------------  -----------------
       1       -0.004763300656     0.000435891250     0.000000200668
       2        0.003786344672    -0.010456394549     0.000000250101
       3        0.001728671498    -0.003834501198    -0.000000052373
       4        0.001905002747     0.001637077981    -0.002948968641
       5        0.001904936219     0.001637284238     0.002948793158
       6       -0.004561736578     0.010580709319    -0.000000222915

*** Psi4 exiting successfully. Buy a developer a beer!
