                               Psi4 1.4a2.dev629

  ==> Input File <==

--------------------------------------------------------------------------
# o-Benzyne preliminary computations

memory 14 gb

molecule {
  0 1
  units bohr
 C   -1.3724181757   -0.0234599587    0.0000070847
 O    1.3057048530    0.1204355066   -0.0000019353
 H   -2.0787005976    1.9093241907   -0.0000821850
 H   -2.1097590635   -0.9794179090    1.6817302324
 H   -2.1097515703   -0.9795474023   -1.6816607887
 H    1.9412003941   -1.5774665473   -0.0000008182
  no_reorient
  no_com
}

set {
  basis 6-31g*
  reference rhf
  e_convergence 10
  d_convergence 10
  r_convergence 8
  maxiter 300
  dft_spherical_points 1202
  dft_radial_points 99
  freeze_core True
}

#gradient('ccsd(t)')
gradient('b3lyp')
--------------------------------------------------------------------------

    Molecular point group: c1
  Charge       = 0
  Multiplicity = 1
  Basis Set: 6-31G*
    Blend: 6-31G*
  Basis Set: (6-31G* AUX)
    Blend: CC-PVDZ-JKFIT

    Orbital Energies [Eh]
    ---------------------

    Doubly Occupied:

       1A    -19.138605     2A    -10.223131     3A     -1.011869
       4A     -0.680079     5A     -0.502987     6A     -0.435433
       7A     -0.420000     8A     -0.330616     9A     -0.264456

  @DF-RKS Final Energy:  -115.71429514634031

   => Energetics <=

    Nuclear Repulsion Energy =             40.3243542812635525
    One-Electron Energy =                -237.0450404520210839
    Two-Electron Energy =                  93.5588782677192654
    DFT Exchange-Correlation Energy =     -12.5524872433020533
    Empirical Dispersion Energy =           0.0000000000000000
    VV10 Nonlocal Energy =                  0.0000000000000000
    Total Energy =                       -115.7142951463403051

  Dipole Moment: [D]
     X:    -0.8389      Y:    -1.4835      Z:     0.0000     Total:     1.7043

    Molecular point group: c1

    Geometry (in Bohr), charge = 0, multiplicity = 1:

       Center              X                  Y                   Z               Mass
    ------------   -----------------  -----------------  -----------------  -----------------
         C           -1.372418175700    -0.023459958700     0.000007084700    12.000000000000
         O            1.305704853000     0.120435506600    -0.000001935300    15.994914619570
         H           -2.078700597600     1.909324190700    -0.000082185000     1.007825032230
         H           -2.109759063500    -0.979417909000     1.681730232400     1.007825032230
         H           -2.109751570300    -0.979547402300    -1.681660788700     1.007825032230
         H            1.941200394100    -1.577466547300    -0.000000818200     1.007825032230

  Basis Set: 6-31G*
    Blend: 6-31G*
  Basis Set: (6-31G* AUX)
    Blend: CC-PVDZ-JKFIT

  -Total Gradient:
     Atom            X                  Y                   Z
    ------   -----------------  -----------------  -----------------
       1       -0.003700127732     0.000102350887     0.000004809387
       2        0.003067936977    -0.008913268401    -0.000000304298
       3        0.000608052495    -0.002890151953    -0.000000605863
       4        0.001824090627     0.001627723861    -0.002702473653
       5        0.001823179842     0.001626570972     0.002698803790
       6       -0.003623218239     0.008446840575    -0.000000229365

*** Psi4 exiting successfully. Buy a developer a beer!
