                               Psi4 1.4a2.dev629

  ==> Input File <==

--------------------------------------------------------------------------
# o-Benzyne preliminary computations

memory 14 gb

molecule {
  0 1
  units bohr
 C   -1.3742627580   -0.0228188613    0.0000038478
 O    1.3066354037    0.1219629060    0.0000020448
 H   -2.0752399242    1.9115476536   -0.0000902582
 H   -2.1109097662   -0.9820706288    1.6786038590
 H   -2.1109144720   -0.9821861903   -1.6785293495
 H    1.9409673568   -1.5765669991    0.0000014461
}

set {
  basis cc-pvtz
  reference rhf
  e_convergence 10
  d_convergence 10
  r_convergence 8
  maxiter 300
  freeze_core True
}

e, wfn = energy('ccsd(t)', return_wfn = True)
psi4.print_out('Giraffe The Energy is %.12f \n'%(e))
--------------------------------------------------------------------------

    Molecular point group: c1

    Geometry (in Bohr), charge = 0, multiplicity = 1:

       Center              X                  Y                   Z               Mass
    ------------   -----------------  -----------------  -----------------  -----------------
         C           -1.374830581008    -0.023909674866     0.000001834903    12.000000000000
         O            1.306067580692     0.120872092434     0.000000031903    15.994914619570
         H           -2.075807747208     1.910456840034    -0.000092271097     1.007825032230
         H           -2.111477589208    -0.983161442366     1.678601846103     1.007825032230
         H           -2.111482295008    -0.983277003866    -1.678531362397     1.007825032230
         H            1.940399533792    -1.577657812666    -0.000000566797     1.007825032230

  Charge       = 0
  Multiplicity = 1
  Basis Set: CC-PVTZ
    Blend: CC-PVTZ

    Orbital Energies [Eh]
    ---------------------

    Doubly Occupied:

       1A    -20.552729     2A    -11.269774     3A     -1.354204
       4A     -0.923082     5A     -0.688208     6A     -0.617222
       7A     -0.590044     8A     -0.502484     9A     -0.448985

  @RHF Final Energy:  -115.08910266563741

   => Energetics <=

    Nuclear Repulsion Energy =             40.3081317879052250
    One-Electron Energy =                -236.9010038663432169
    Two-Electron Energy =                  81.5037694128005938
    Total Energy =                       -115.0891026656374123

  Dipole Moment: [D]
     X:    -0.9837      Y:    -1.4963      Z:    -0.0000     Total:     1.7907

      * MP2 total energy                      = -115.517446550658178
      * CCSD total energy                     = -115.535991765719487
      * CCSD(T) total energy                  = -115.550783324661467
*** Psi4 exiting successfully. Buy a developer a beer!
