                               Psi4 1.4a2.dev629

  ==> Input File <==

--------------------------------------------------------------------------
# o-Benzyne preliminary computations

memory 14 gb

molecule {
  0 1
  units bohr
 C   -1.3750677901   -0.0242768732   -0.0027222096
 O    1.3060117461    0.1207005823    0.0009029852
 H   -2.0778727782    1.9096084920    0.0008471308
 H   -2.1088927335   -0.9789177486    1.6825195101
 H   -2.1090767022   -0.9797552826   -1.6813589324
 H    1.9411740978   -1.5774912899   -0.0001968941
  no_reorient
  no_com
}

set {
  basis 6-31g*
  reference rhf
  e_convergence 10
  d_convergence 10
  r_convergence 8
  maxiter 300
  dft_spherical_points 1202
  dft_radial_points 99
  freeze_core True
}

#gradient('ccsd(t)')
gradient('b3lyp')
--------------------------------------------------------------------------

    Molecular point group: c1
  Charge       = 0
  Multiplicity = 1
  Basis Set: 6-31G*
    Blend: 6-31G*
  Basis Set: (6-31G* AUX)
    Blend: CC-PVDZ-JKFIT

    Orbital Energies [Eh]
    ---------------------

    Doubly Occupied:

       1A    -19.138432     2A    -10.223062     3A     -1.011281
       4A     -0.680168     5A     -0.502602     6A     -0.435613
       7A     -0.419720     8A     -0.330661     9A     -0.264416

  @DF-RKS Final Energy:  -115.71427974495570

   => Energetics <=

    Nuclear Repulsion Energy =             40.3078062988022054
    One-Electron Energy =                -237.0143878233429007
    Two-Electron Energy =                  93.5447166442079379
    DFT Exchange-Correlation Energy =     -12.5524148646229428
    Empirical Dispersion Energy =           0.0000000000000000
    VV10 Nonlocal Energy =                  0.0000000000000000
    Total Energy =                       -115.7142797449557037

  Dipole Moment: [D]
     X:    -0.8455      Y:    -1.4845      Z:    -0.0044     Total:     1.7084

    Molecular point group: c1

    Geometry (in Bohr), charge = 0, multiplicity = 1:

       Center              X                  Y                   Z               Mass
    ------------   -----------------  -----------------  -----------------  -----------------
         C           -1.375067790100    -0.024276873200    -0.002722209600    12.000000000000
         O            1.306011746100     0.120700582300     0.000902985200    15.994914619570
         H           -2.077872778200     1.909608492000     0.000847130800     1.007825032230
         H           -2.108892733500    -0.978917748600     1.682519510100     1.007825032230
         H           -2.109076702200    -0.979755282600    -1.681358932400     1.007825032230
         H            1.941174097800    -1.577491289900    -0.000196894100     1.007825032230

  Basis Set: 6-31G*
    Blend: 6-31G*
  Basis Set: (6-31G* AUX)
    Blend: CC-PVDZ-JKFIT

  -Total Gradient:
     Atom            X                  Y                   Z
    ------   -----------------  -----------------  -----------------
       1       -0.005168364224    -0.000462067723    -0.001855408589
       2        0.003761104692    -0.008760153278     0.000227301336
       3        0.000799274898    -0.002844841110     0.000209403928
       4        0.001927920311     0.001564105757    -0.002246860123
       5        0.002277445854     0.002106828729     0.003662372857
       6       -0.003597466649     0.008396192611     0.000003190452

*** Psi4 exiting successfully. Buy a developer a beer!
