                               Psi4 1.4a2.dev629

  ==> Input File <==

--------------------------------------------------------------------------
# o-Benzyne preliminary computations

memory 14 gb

molecule {
  0 1
  units bohr
 C   -1.3756634992   -0.0241915408    0.0000003552
 O    1.3125735066    0.1228883948    0.0000002800
 H   -2.0783624866    1.9088836705   -0.0000799103
 H   -2.1107275171   -0.9799115510    1.6804779741
 H   -2.1107204701   -0.9800426607   -1.6804057849
 H    1.9391763064   -1.5777584328   -0.0000013240
  no_reorient
  no_com
}

set {
  basis 6-31g*
  reference rhf
  e_convergence 10
  d_convergence 10
  r_convergence 8
  maxiter 300
  dft_spherical_points 1202
  dft_radial_points 99
  freeze_core True
}

#gradient('ccsd(t)')
gradient('b3lyp')
--------------------------------------------------------------------------

    Molecular point group: c1
  Charge       = 0
  Multiplicity = 1
  Basis Set: 6-31G*
    Blend: 6-31G*
  Basis Set: (6-31G* AUX)
    Blend: CC-PVDZ-JKFIT

    Orbital Energies [Eh]
    ---------------------

    Doubly Occupied:

       1A    -19.138589     2A    -10.223251     3A     -1.010430
       4A     -0.680338     5A     -0.502020     6A     -0.435236
       7A     -0.419228     8A     -0.331439     9A     -0.264616

  @DF-RKS Final Energy:  -115.71425701008826

   => Energetics <=

    Nuclear Repulsion Energy =             40.2546803329955907
    One-Electron Energy =                -236.9104068041976348
    Two-Electron Energy =                  93.4928267311210277
    DFT Exchange-Correlation Energy =     -12.5513572700072285
    Empirical Dispersion Energy =           0.0000000000000000
    VV10 Nonlocal Energy =                  0.0000000000000000
    Total Energy =                       -115.7142570100882608

  Dipole Moment: [D]
     X:    -0.8630      Y:    -1.4868      Z:    -0.0000     Total:     1.7191

    Molecular point group: c1

    Geometry (in Bohr), charge = 0, multiplicity = 1:

       Center              X                  Y                   Z               Mass
    ------------   -----------------  -----------------  -----------------  -----------------
         C           -1.375663499200    -0.024191540800     0.000000355200    12.000000000000
         O            1.312573506600     0.122888394800     0.000000280000    15.994914619570
         H           -2.078362486600     1.908883670500    -0.000079910300     1.007825032230
         H           -2.110727517100    -0.979911551000     1.680477974100     1.007825032230
         H           -2.110720470100    -0.980042660700    -1.680405784900     1.007825032230
         H            1.939176306400    -1.577758432800    -0.000001324000     1.007825032230

  Basis Set: 6-31G*
    Blend: 6-31G*
  Basis Set: (6-31G* AUX)
    Blend: CC-PVDZ-JKFIT

  -Total Gradient:
     Atom            X                  Y                   Z
    ------   -----------------  -----------------  -----------------
       1       -0.006843037483    -0.000771471262     0.000000235013
       2        0.006569193517    -0.008550331766     0.000000247877
       3        0.000804521299    -0.003068106851    -0.000000081923
       4        0.001783951252     0.001822457365    -0.003169468331
       5        0.001783901139     0.001822686889     0.003169286475
       6       -0.004098603103     0.008744827924    -0.000000219114

*** Psi4 exiting successfully. Buy a developer a beer!
