                               Psi4 1.4a2.dev629

  ==> Input File <==

--------------------------------------------------------------------------
# o-Benzyne preliminary computations

memory 14 gb

molecule {
  0 1
  units bohr
 C   -1.3750809947   -0.0242807529    0.0027229267
 O    1.3060133026    0.1207018536   -0.0009024060
 H   -2.0778686528    1.9096098373   -0.0010069597
 H   -2.1090799446   -0.9796233596    1.6814323181
 H   -2.1088818489   -0.9790482911   -1.6824485498
 H    1.9411739784   -1.5774914074    0.0001942606
  no_reorient
  no_com
}

set {
  basis 6-31g*
  reference rhf
  e_convergence 10
  d_convergence 10
  r_convergence 8
  maxiter 300
  dft_spherical_points 1202
  dft_radial_points 99
  freeze_core True
}

#gradient('ccsd(t)')
gradient('b3lyp')
--------------------------------------------------------------------------

    Molecular point group: c1
  Charge       = 0
  Multiplicity = 1
  Basis Set: 6-31G*
    Blend: 6-31G*
  Basis Set: (6-31G* AUX)
    Blend: CC-PVDZ-JKFIT

    Orbital Energies [Eh]
    ---------------------

    Doubly Occupied:

       1A    -19.138431     2A    -10.223062     3A     -1.011278
       4A     -0.680168     5A     -0.502600     6A     -0.435614
       7A     -0.419719     8A     -0.330661     9A     -0.264415

  @DF-RKS Final Energy:  -115.71427966856490

   => Energetics <=

    Nuclear Repulsion Energy =             40.3077239707994792
    One-Electron Energy =                -237.0142353094819043
    Two-Electron Energy =                  93.5446461854340896
    DFT Exchange-Correlation Energy =     -12.5524145153165634
    Empirical Dispersion Energy =           0.0000000000000000
    VV10 Nonlocal Energy =                  0.0000000000000000
    Total Energy =                       -115.7142796685648989

  Dipole Moment: [D]
     X:    -0.8455      Y:    -1.4845      Z:     0.0044     Total:     1.7084

    Molecular point group: c1

    Geometry (in Bohr), charge = 0, multiplicity = 1:

       Center              X                  Y                   Z               Mass
    ------------   -----------------  -----------------  -----------------  -----------------
         C           -1.375080994700    -0.024280752900     0.002722926700    12.000000000000
         O            1.306013302600     0.120701853600    -0.000902406000    15.994914619570
         H           -2.077868652800     1.909609837300    -0.001006959700     1.007825032230
         H           -2.109079944600    -0.979623359600     1.681432318100     1.007825032230
         H           -2.108881848900    -0.979048291100    -1.682448549800     1.007825032230
         H            1.941173978400    -1.577491407400     0.000194260600     1.007825032230

  Basis Set: 6-31G*
    Blend: 6-31G*
  Basis Set: (6-31G* AUX)
    Blend: CC-PVDZ-JKFIT

  -Total Gradient:
     Atom            X                  Y                   Z
    ------   -----------------  -----------------  -----------------
       1       -0.005175650272    -0.000464730847     0.001855925581
       2        0.003764548551    -0.008759448499    -0.000226796499
       3        0.000800221499    -0.002844622244    -0.000209585334
       4        0.002278878471     0.002107606256    -0.003663860710
       5        0.001929256122     0.001565286497     0.002247948758
       6       -0.003597339483     0.008395973818    -0.000003631667

*** Psi4 exiting successfully. Buy a developer a beer!
