                               Psi4 1.4a2.dev629

  ==> Input File <==

--------------------------------------------------------------------------
# o-Benzyne preliminary computations

memory 14 gb

molecule {
  0 1
  units bohr
 C   -1.3752976788   -0.0227657553    0.0000003713
 O    1.3070489525    0.1210729294    0.0000002595
 H   -2.0774224888    1.9035763346   -0.0000796562
 H   -2.1095645077   -0.9772077562    1.6858581112
 H   -2.1095574408   -0.9773393449   -1.6857861865
 H    1.9410690037   -1.5774685275   -0.0000013093
  no_reorient
  no_com
}

set {
  basis 6-31g*
  reference rhf
  e_convergence 10
  d_convergence 10
  r_convergence 8
  maxiter 300
  dft_spherical_points 1202
  dft_radial_points 99
  freeze_core True
}

#gradient('ccsd(t)')
gradient('b3lyp')
--------------------------------------------------------------------------

    Molecular point group: c1
  Charge       = 0
  Multiplicity = 1
  Basis Set: 6-31G*
    Blend: 6-31G*
  Basis Set: (6-31G* AUX)
    Blend: CC-PVDZ-JKFIT

    Orbital Energies [Eh]
    ---------------------

    Doubly Occupied:

       1A    -19.138433     2A    -10.223049     3A     -1.011092
       4A     -0.680312     5A     -0.502237     6A     -0.435436
       7A     -0.420144     8A     -0.330691     9A     -0.264413

  @DF-RKS Final Energy:  -115.71426723006586

   => Energetics <=

    Nuclear Repulsion Energy =             40.3004705491758628
    One-Electron Energy =                -237.0000002932519578
    Two-Electron Energy =                  93.5376474855302149
    DFT Exchange-Correlation Energy =     -12.5523849715199738
    Empirical Dispersion Energy =           0.0000000000000000
    VV10 Nonlocal Energy =                  0.0000000000000000
    Total Energy =                       -115.7142672300658575

  Dipole Moment: [D]
     X:    -0.8483      Y:    -1.4799      Z:    -0.0000     Total:     1.7058

    Molecular point group: c1

    Geometry (in Bohr), charge = 0, multiplicity = 1:

       Center              X                  Y                   Z               Mass
    ------------   -----------------  -----------------  -----------------  -----------------
         C           -1.375297678800    -0.022765755300     0.000000371300    12.000000000000
         O            1.307048952500     0.121072929400     0.000000259500    15.994914619570
         H           -2.077422488800     1.903576334600    -0.000079656200     1.007825032230
         H           -2.109564507700    -0.977207756200     1.685858111200     1.007825032230
         H           -2.109557440800    -0.977339344900    -1.685786186500     1.007825032230
         H            1.941069003700    -1.577468527500    -0.000001309300     1.007825032230

  Basis Set: 6-31G*
    Blend: 6-31G*
  Basis Set: (6-31G* AUX)
    Blend: CC-PVDZ-JKFIT

  -Total Gradient:
     Atom            X                  Y                   Z
    ------   -----------------  -----------------  -----------------
       1       -0.005673786534     0.002670977367     0.000000176186
       2        0.004198482346    -0.008879534506     0.000000252664
       3        0.001469908524    -0.005399860619     0.000000012889
       4        0.001789208037     0.001591833551    -0.001938784025
       5        0.001789152730     0.001591935268     0.001938564026
       6       -0.003573047829     0.008424714183    -0.000000221744

*** Psi4 exiting successfully. Buy a developer a beer!
