                               Psi4 1.4a2.dev629

  ==> Input File <==

--------------------------------------------------------------------------
# o-Benzyne preliminary computations

memory 14 gb

molecule {
  0 1
  units bohr
 H   -0.0000000000   -1.4221544045    0.9939658780
 O    0.0000000000   -0.0049723034   -0.1255022058
 H    0.0000000000    1.4271267079    0.9978799478
}

set {
  basis cc-pvtz
  reference rhf
  e_convergence 10
  d_convergence 10
  r_convergence 8
  maxiter 300
  freeze_core True
}

e, wfn = energy('ccsd(t)', return_wfn = True)
psi4.print_out('Giraffe The Energy is %.12f \n'%(e))
--------------------------------------------------------------------------

    Molecular point group: cs

    Geometry (in Bohr), charge = 0, multiplicity = 1:

       Center              X                  Y                   Z               Mass
    ------------   -----------------  -----------------  -----------------  -----------------
         H            1.418016813157    -0.993963933739     0.000000000000     1.007825032230
         O            0.000834712057     0.125504150061     0.000000000000    15.994914619570
         H           -1.431264299243    -0.997878003539     0.000000000000     1.007825032230

  Charge       = 0
  Multiplicity = 1
  Basis Set: CC-PVTZ
    Blend: CC-PVTZ

    Orbital Energies [Eh]
    ---------------------

    Doubly Occupied:

       1Ap   -20.555583     2Ap    -1.345251     3Ap    -0.706806
       4Ap    -0.579149     1App   -0.504608

  @RHF Final Energy:   -76.05691801824774

   => Energetics <=

    Nuclear Repulsion Energy =              9.1759352154261435
    One-Electron Energy =                -123.0829103138112401
    Two-Electron Energy =                  37.8500570801373541
    Total Energy =                        -76.0569180182477282

  Dipole Moment: [D]
     X:    -0.0092      Y:    -2.0416      Z:     0.0000     Total:     2.0416

      * MP2 total energy                      =  -76.318629434010745
      * CCSD total energy                     =  -76.324517670285985
      * CCSD(T) total energy                  =  -76.332188975348345
*** Psi4 exiting successfully. Buy a developer a beer!
