                               Psi4 1.4a2.dev629

  ==> Input File <==

--------------------------------------------------------------------------
# o-Benzyne preliminary computations

memory 14 gb

molecule {
  0 1
  units bohr
 H    0.0000000000   -1.4349429935    0.9968712246
 O    0.0000000000    0.0049637879   -0.1234914625
 H    0.0000000000    1.4299792057    0.9929638579
}

set {
  basis 6-31g*
  reference rhf
  e_convergence 10
  d_convergence 10
  r_convergence 8
  maxiter 300
  freeze_core True
}

e, wfn = energy('b3lyp', return_wfn = True)
psi4.print_out('Giraffe The Energy is %.12f \n'%(e))
--------------------------------------------------------------------------

    Molecular point group: cs

    Geometry (in Bohr), charge = 0, multiplicity = 1:

       Center              X                  Y                   Z               Mass
    ------------   -----------------  -----------------  -----------------  -----------------
         H            1.439073498865    -0.995196085161     0.000000000000     1.007825032230
         O           -0.000833282535     0.125166601939     0.000000000000    15.994914619570
         H           -1.425848700335    -0.991288718461     0.000000000000     1.007825032230

  Charge       = 0
  Multiplicity = 1
  Basis Set: 6-31G*
    Blend: 6-31G*
  Basis Set: (6-31G* AUX)
    Blend: CC-PVDZ-JKFIT

    Orbital Energies [Eh]
    ---------------------

    Doubly Occupied:

       1Ap   -19.136755     2Ap    -1.000604     3Ap    -0.520435
       4Ap    -0.371897     1App   -0.291570

  @DF-RKS Final Energy:   -76.40883829480480

   => Energetics <=

    Nuclear Repulsion Energy =              9.1531681235081663
    One-Electron Energy =                -123.0538746824283436
    Two-Electron Energy =                  45.0523398253411358
    DFT Exchange-Correlation Energy =      -7.5604715612257491
    Empirical Dispersion Energy =           0.0000000000000000
    VV10 Nonlocal Energy =                  0.0000000000000000
    Total Energy =                        -76.4088382948047951

  Dipole Moment: [D]
     X:     0.0067      Y:    -2.0872      Z:     0.0000     Total:     2.0872

*** Psi4 exiting successfully. Buy a developer a beer!
