                               Psi4 1.4a2.dev629

  ==> Input File <==

--------------------------------------------------------------------------
# o-Benzyne preliminary computations

memory 14 gb

molecule {
  0 1
  units bohr
 C   -1.3741779242   -0.0242329672    0.0000003081
 O    1.3074573880    0.1211894754    0.0000003391
 H   -2.0775902479    1.9144170070   -0.0000800730
 H   -2.1098187739   -0.9821854256    1.6869021336
 H   -2.1098118348   -0.9823171246   -1.6868298100
 H    1.9402172327   -1.5770030850   -0.0000013078
  no_reorient
  no_com
}

set {
  basis 6-31g*
  reference rhf
  e_convergence 10
  d_convergence 10
  r_convergence 8
  maxiter 300
  dft_spherical_points 1202
  dft_radial_points 99
  freeze_core True
}

#gradient('ccsd(t)')
gradient('b3lyp')
--------------------------------------------------------------------------

    Molecular point group: c1
  Charge       = 0
  Multiplicity = 1
  Basis Set: 6-31G*
    Blend: 6-31G*
  Basis Set: (6-31G* AUX)
    Blend: CC-PVDZ-JKFIT

    Orbital Energies [Eh]
    ---------------------

    Doubly Occupied:

       1A    -19.138625     2A    -10.224021     3A     -1.011476
       4A     -0.679514     5A     -0.502451     6A     -0.435129
       7A     -0.419463     8A     -0.330757     9A     -0.264501

  @DF-RKS Final Energy:  -115.71431846602336

   => Energetics <=

    Nuclear Repulsion Energy =             40.2740411394474549
    One-Electron Energy =                -236.9487277748080487
    Two-Electron Energy =                  93.5102597067255488
    DFT Exchange-Correlation Energy =     -12.5498915373883175
    Empirical Dispersion Energy =           0.0000000000000000
    VV10 Nonlocal Energy =                  0.0000000000000000
    Total Energy =                       -115.7143184660233572

  Dipole Moment: [D]
     X:    -0.8429      Y:    -1.4836      Z:    -0.0000     Total:     1.7063

    Molecular point group: c1

    Geometry (in Bohr), charge = 0, multiplicity = 1:

       Center              X                  Y                   Z               Mass
    ------------   -----------------  -----------------  -----------------  -----------------
         C           -1.374177924200    -0.024232967200     0.000000308100    12.000000000000
         O            1.307457388000     0.121189475400     0.000000339100    15.994914619570
         H           -2.077590247900     1.914417007000    -0.000080073000     1.007825032230
         H           -2.109818773900    -0.982185425600     1.686902133600     1.007825032230
         H           -2.109811834800    -0.982317124600    -1.686829810000     1.007825032230
         H            1.940217232700    -1.577003085000    -0.000001307800     1.007825032230

  Basis Set: 6-31G*
    Blend: 6-31G*
  Basis Set: (6-31G* AUX)
    Blend: CC-PVDZ-JKFIT

  -Total Gradient:
     Atom            X                  Y                   Z
    ------   -----------------  -----------------  -----------------
       1       -0.003733198665    -0.000356380560     0.000000230263
       2        0.004399885574    -0.009011600582     0.000000262516
       3        0.000350488081    -0.001195981372    -0.000000152661
       4        0.001436710099     0.000874130826    -0.001258344429
       5        0.001436655555     0.000874196168     0.001258225791
       6       -0.003890623930     0.008815700508    -0.000000221483

*** Psi4 exiting successfully. Buy a developer a beer!
