                               Psi4 1.4a2.dev629

  ==> Input File <==

--------------------------------------------------------------------------
# o-Benzyne preliminary computations

memory 14 gb

molecule {
  0 1
  units bohr
 C   -1.3750762588   -0.0242808598    0.0029032069
 O    1.3060142521    0.1207029851   -0.0023534882
 H   -2.0778679892    1.9096082567   -0.0007928536
 H   -2.1131220638   -0.9794779063    1.6830353047
 H   -2.1048468010   -0.9791938766   -1.6808297853
 H    1.9411747006   -1.5774907191   -0.0019707946
}

set {
  basis cc-pvtz
  reference rhf
  e_convergence 10
  d_convergence 10
  r_convergence 8
  maxiter 300
  freeze_core True
}

e, wfn = energy('ccsd(t)', return_wfn = True)
psi4.print_out('Giraffe The Energy is %.12f \n'%(e))
--------------------------------------------------------------------------

    Molecular point group: c1

    Geometry (in Bohr), charge = 0, multiplicity = 1:

       Center              X                  Y                   Z               Mass
    ------------   -----------------  -----------------  -----------------  -----------------
         C           -1.375074192480    -0.024280283357     0.003008366258    12.000000000000
         O            1.306016318420     0.120703561543    -0.002248328842    15.994914619570
         H           -2.077865922880     1.909608833143    -0.000687694242     1.007825032230
         H           -2.113119997480    -0.979477329857     1.683140464058     1.007825032230
         H           -2.104844734680    -0.979193300157    -1.680724625942     1.007825032230
         H            1.941176766920    -1.577490142657    -0.001865635242     1.007825032230

  Charge       = 0
  Multiplicity = 1
  Basis Set: CC-PVTZ
    Blend: CC-PVTZ

    Orbital Energies [Eh]
    ---------------------

    Doubly Occupied:

       1A    -20.552620     2A    -11.269753     3A     -1.354101
       4A     -0.923076     5A     -0.687873     6A     -0.617660
       7A     -0.590044     8A     -0.502058     9A     -0.449145

  @RHF Final Energy:  -115.08911134582205

   => Energetics <=

    Nuclear Repulsion Energy =             40.3077294420419534
    One-Electron Energy =                -236.9010211859505830
    Two-Electron Energy =                  81.5041803980865751
    Total Energy =                       -115.0891113458220474

  Dipole Moment: [D]
     X:    -0.9842      Y:    -1.4950      Z:     0.0031     Total:     1.7899

      * MP2 total energy                      = -115.517446000069029
      * CCSD total energy                     = -115.535993269299269
      * CCSD(T) total energy                  = -115.550783484113339
*** Psi4 exiting successfully. Buy a developer a beer!
