                               Psi4 1.4a2.dev629

  ==> Input File <==

--------------------------------------------------------------------------
# o-Benzyne preliminary computations

memory 30 gb

molecule P1P2_CN_Singlet
{
  0 1
  H         -1.8897259886          1.4550890112          0.0000000000
  O          0.0000000000          0.0000000000          0.0000000000
  H          1.8897259886          1.4550890112          0.0000000000
  no_reorient
  units bohr
}

set {
  reference rhf
  basis cc-pvtz
  e_convergence 9
  d_convergence 10
  maxiter 300
  normal_modes_write true
}

freq('ccsd(t)')
--------------------------------------------------------------------------

    Molecular point group: c2v
  Charge       = 0
  Multiplicity = 1
  Basis Set: CC-PVTZ
    Blend: CC-PVTZ
  @RHF Final Energy:   -75.93753378779064
    Total Energy =                        -75.9375337877906418
      * MP2 total energy                      =  -76.235670907418609
      * CCSD total energy                     =  -76.240084777587683
      * CCSD(T) total energy                  =  -76.251075199033835
    Molecular point group: c2v
  Basis Set: CC-PVTZ
    Blend: CC-PVTZ
  @RHF Final Energy:   -75.93753378779087
    Total Energy =                        -75.9375337877908692
      * MP2 total energy                      =  -76.235670907418822
      * CCSD total energy                     =  -76.240084777587896
      * CCSD(T) total energy                  =  -76.251075199034048
  Basis Set: CC-PVTZ
    Blend: CC-PVTZ
  @RHF Final Energy:   -75.93670733405267
    Total Energy =                        -75.9367073340526701
      * MP2 total energy                      =  -76.234954586514036
      * CCSD total energy                     =  -76.239373059330845
      * CCSD(T) total energy                  =  -76.250382090492337
  Basis Set: CC-PVTZ
    Blend: CC-PVTZ
  @RHF Final Energy:   -75.93835871810921
    Total Energy =                        -75.9383587181092139
      * MP2 total energy                      =  -76.236385991124791
      * CCSD total energy                     =  -76.240795358384148
      * CCSD(T) total energy                  =  -76.251767259373480
  @RHF Final Energy:   -75.93813170774679
    Total Energy =                        -75.9381317077468054
      * MP2 total energy                      =  -76.236142561053100
      * CCSD total energy                     =  -76.240564144767319
      * CCSD(T) total energy                  =  -76.251536316164120
  @RHF Final Energy:   -75.93693378843712
    Total Energy =                        -75.9369337884371305
      * MP2 total energy                      =  -76.235197574011593
      * CCSD total energy                     =  -76.239603668236271
      * CCSD(T) total energy                  =  -76.250612409569868
  @RHF Final Energy:   -75.93753301838792
    Total Energy =                        -75.9375330183879242
      * MP2 total energy                      =  -76.235670240506934
      * CCSD total energy                     =  -76.240084114918304
      * CCSD(T) total energy                  =  -76.251074553663784
  Basis Set: CC-PVTZ
    Blend: CC-PVTZ
  @RHF Final Energy:   -75.93753323025891
    Total Energy =                        -75.9375332302589072
      * MP2 total energy                      =  -76.235670370142316
      * CCSD total energy                     =  -76.240084346645446
      * CCSD(T) total energy                  =  -76.251074791216126
  Basis Set: CC-PVTZ
    Blend: CC-PVTZ
  @RHF Final Energy:   -75.93753312982034
    Total Energy =                        -75.9375331298203378
      * MP2 total energy                      =  -76.235670277093192
      * CCSD total energy                     =  -76.240084212730764
      * CCSD(T) total energy                  =  -76.251074651288832
    Molecular point group: cs
  Charge       = 0
  Multiplicity = 1
  Basis Set: CC-PVTZ
    Blend: CC-PVTZ

    Orbital Energies [Eh]
    ---------------------

    Doubly Occupied:

       1Ap   -20.600014     2Ap    -1.241182     1App   -0.576512
       3Ap    -0.520702     4Ap    -0.492475

  @RHF Final Energy:   -75.93753301863362

   => Energetics <=

    Nuclear Repulsion Energy =              6.9731030441843540
    One-Electron Energy =                -118.9595027245226078
    Two-Electron Energy =                  36.0488666617046434
    Total Energy =                        -75.9375330186336157

  Dipole Moment: [D]
     X:     0.0000      Y:     2.1915      Z:    -0.0056     Total:     2.1916

      * MP2 total energy                      =  -76.235670300663415
      * CCSD total energy                     =  -76.240084160887037
      * CCSD(T) total energy                  =  -76.251074605813812
    Molecular point group: cs

    Geometry (in Bohr), charge = 0, multiplicity = 1:

       Center              X                  Y                   Z
    ------------   -----------------  -----------------  -----------------
         H           -1.889725988600     1.292242908889    -0.003318866125
         O            0.000000000000    -0.162846102311     0.000418237476
         H            1.889725988600     1.292242908889    -0.003318866125

  -Total gradient:
     Atom            X                  Y                   Z
    ------   -----------------  -----------------  -----------------
       1       -0.098329078030     0.061806697779    -0.000158738078
       2        0.000000000000    -0.123613395559     0.000317476156
       3        0.098329078030     0.061806697779    -0.000158738078

  Vibration                       4                   5                   6
  Freq [cm^-1]                 529.0762            832.0185           1119.8437
  Irrep                           A1                  B1                  B2
  Reduced mass [u]              1.0471              1.0915              1.1259
  Force const [mDyne/A]         0.1727              0.4452              0.8319

  Vibration                       7                   8                   9
  Freq [cm^-1]                1153.4999           1168.0290           1611.1004
  Irrep                           B1                  A2                  A1
  Reduced mass [u]              1.0371              1.0078              1.0806
  Force const [mDyne/A]         0.8130              0.8101              1.6526

  ==> Thermochemistry Components <==

  Entropy, S
    Electronic S            0.000 [cal/(mol K)]        0.000 [J/(mol K)]       0.00000000 [mEh/K] (multiplicity = 1)
    Translational S        34.608 [cal/(mol K)]      144.801 [J/(mol K)]       0.05515177 [mEh/K] (mol. weight = 18.0106 [u], P = 101325.00 [Pa])
    Rotational S           12.092 [cal/(mol K)]       50.593 [J/(mol K)]       0.01926980 [mEh/K] (symmetry no. = 2)
    Vibrational S           0.934 [cal/(mol K)]        3.908 [J/(mol K)]       0.00148861 [mEh/K]
  Total S                  47.634 [cal/(mol K)]      199.302 [J/(mol K)]       0.07591018 [mEh/K]
  Correction S              0.000 [cal/(mol K)]        0.000 [J/(mol K)]       0.00000000 [mEh/K]

  Constant volume heat capacity, Cv
    Electronic Cv           0.000 [cal/(mol K)]        0.000 [J/(mol K)]       0.00000000 [mEh/K]
    Translational Cv        2.981 [cal/(mol K)]       12.472 [J/(mol K)]       0.00475022 [mEh/K]
    Rotational Cv           2.981 [cal/(mol K)]       12.472 [J/(mol K)]       0.00475022 [mEh/K]
    Vibrational Cv          2.563 [cal/(mol K)]       10.724 [J/(mol K)]       0.00408439 [mEh/K]
  Total Cv                  8.525 [cal/(mol K)]       35.667 [J/(mol K)]       0.01358482 [mEh/K]
  Correction Cv             0.000 [cal/(mol K)]        0.000 [J/(mol K)]       0.00000000 [mEh/K]

  Constant pressure heat capacity, Cp
    Electronic Cp           0.000 [cal/(mol K)]        0.000 [J/(mol K)]       0.00000000 [mEh/K]
    Translational Cp        4.968 [cal/(mol K)]       20.786 [J/(mol K)]       0.00791703 [mEh/K]
    Rotational Cp           2.981 [cal/(mol K)]       12.472 [J/(mol K)]       0.00475022 [mEh/K]
    Vibrational Cp          2.563 [cal/(mol K)]       10.724 [J/(mol K)]       0.00408439 [mEh/K]
  Total Cp                 10.512 [cal/(mol K)]       43.981 [J/(mol K)]       0.01675163 [mEh/K]
  Correction Cp             0.000 [cal/(mol K)]        0.000 [J/(mol K)]       0.00000000 [mEh/K]

  ==> Thermochemistry Energy Analysis <==

  Raw electronic energy, E0
  Total E0, Electronic energy at well bottom at 0 [K]                  -76.25107520 [Eh]

  Zero-point energy, ZPE_vib = Sum_i nu_i / 2
    Electronic ZPE          0.000 [kcal/mol]        0.000 [kJ/mol]       0.00000000 [Eh]
    Translational ZPE       0.000 [kcal/mol]        0.000 [kJ/mol]       0.00000000 [Eh]
    Rotational ZPE          0.000 [kcal/mol]        0.000 [kJ/mol]       0.00000000 [Eh]
    Vibrational ZPE         9.169 [kcal/mol]       38.362 [kJ/mol]       0.01461118 [Eh]        3206.784 [cm^-1]
  Correction ZPE            9.169 [kcal/mol]       38.362 [kJ/mol]       0.01461118 [Eh]        3206.784 [cm^-1]
  Total ZPE, Electronic energy at 0 [K]                                -76.23646402 [Eh]

  Thermal Energy, E (includes ZPE)
    Electronic E            0.000 [kcal/mol]        0.000 [kJ/mol]       0.00000000 [Eh]
    Translational E         0.889 [kcal/mol]        3.718 [kJ/mol]       0.00141628 [Eh]
    Rotational E            0.889 [kcal/mol]        3.718 [kJ/mol]       0.00141628 [Eh]
    Vibrational E           9.381 [kcal/mol]       39.250 [kJ/mol]       0.01494967 [Eh]
  Correction E             11.159 [kcal/mol]       46.687 [kJ/mol]       0.01778222 [Eh]
  Total E, Electronic energy at  298.15 [K]                            -76.23329298 [Eh]

  Enthalpy, H_trans = E_trans + k_B * T
    Electronic H            0.000 [kcal/mol]        0.000 [kJ/mol]       0.00000000 [Eh]
    Translational H         1.481 [kcal/mol]        6.197 [kJ/mol]       0.00236046 [Eh]
    Rotational H            0.889 [kcal/mol]        3.718 [kJ/mol]       0.00141628 [Eh]
    Vibrational H           9.381 [kcal/mol]       39.250 [kJ/mol]       0.01494967 [Eh]
  Correction H             11.751 [kcal/mol]       49.166 [kJ/mol]       0.01872641 [Eh]
  Total H, Enthalpy at  298.15 [K]                                     -76.23234879 [Eh]

  Gibbs free energy, G = H - T * S
    Electronic G            0.000 [kcal/mol]        0.000 [kJ/mol]       0.00000000 [Eh]
    Translational G        -8.837 [kcal/mol]      -36.975 [kJ/mol]      -0.01408304 [Eh]
    Rotational G           -2.716 [kcal/mol]      -11.366 [kJ/mol]      -0.00432902 [Eh]
    Vibrational G           9.103 [kcal/mol]       38.085 [kJ/mol]       0.01450584 [Eh]
  Correction G             -2.451 [kcal/mol]      -10.256 [kJ/mol]      -0.00390622 [Eh]
  Total G, Free enthalpy at  298.15 [K]                                -76.25498142 [Eh]

*** Psi4 exiting successfully. Buy a developer a beer!
