                               Psi4 1.4a2.dev629

  ==> Input File <==

--------------------------------------------------------------------------
# o-Benzyne preliminary computations

memory 14 gb

molecule {
  0 1
  units bohr
 C   -1.3738799183   -0.0270579074    0.0000013028
 O    1.3069186403    0.1248622363    0.0000012754
 H   -2.0744363931    1.9075455138   -0.0000820917
 H   -2.1082844957   -0.9794373573    1.6832711361
 H   -2.1082791279   -0.9795661599   -1.6831983839
 H    1.9342371347   -1.5764784455   -0.0000016487
}

set {
  basis cc-pvtz
  reference rhf
  e_convergence 10
  d_convergence 10
  r_convergence 8
  maxiter 300
  freeze_core True
}

e, wfn = energy('ccsd(t)', return_wfn = True)
psi4.print_out('Giraffe The Energy is %.12f \n'%(e))
--------------------------------------------------------------------------

    Molecular point group: c1

    Geometry (in Bohr), charge = 0, multiplicity = 1:

       Center              X                  Y                   Z               Mass
    ------------   -----------------  -----------------  -----------------  -----------------
         C           -1.374711685493    -0.028050557209     0.000000523459    12.000000000000
         O            1.306086873107     0.123869586491     0.000000496059    15.994914619570
         H           -2.075268160293     1.906552863991    -0.000082871041     1.007825032230
         H           -2.109116262893    -0.980430007109     1.683270356759     1.007825032230
         H           -2.109110895093    -0.980558809709    -1.683199163241     1.007825032230
         H            1.933405367507    -1.577471095309    -0.000002428041     1.007825032230

  Charge       = 0
  Multiplicity = 1
  Basis Set: CC-PVTZ
    Blend: CC-PVTZ

    Orbital Energies [Eh]
    ---------------------

    Doubly Occupied:

       1A    -20.552881     2A    -11.269709     3A     -1.354407
       4A     -0.922924     5A     -0.687948     6A     -0.617896
       7A     -0.589607     8A     -0.502403     9A     -0.449399

  @RHF Final Energy:  -115.08903945199300

   => Energetics <=

    Nuclear Repulsion Energy =             40.3125135337796792
    One-Electron Energy =                -236.9087630918715490
    Two-Electron Energy =                  81.5072101060988672
    Total Energy =                       -115.0890394519930027

  Dipole Moment: [D]
     X:    -0.9887      Y:    -1.4988      Z:    -0.0000     Total:     1.7955

      * MP2 total energy                      = -115.517445137127694
      * CCSD total energy                     = -115.535980151134567
      * CCSD(T) total energy                  = -115.550778540721069
*** Psi4 exiting successfully. Buy a developer a beer!
