                               Psi4 1.4a2.dev629

  ==> Input File <==

--------------------------------------------------------------------------
# o-Benzyne preliminary computations

memory 30 gb

molecule P1P2_CN_Singlet
{
  0 1
    H           -1.418057442022     1.021231091120     0.000000000000
    O            0.000000000000    -0.128693685687     0.000000000000
    H            1.418057442022     1.021231091120     0.000000000000
  no_reorient
  units bohr
}

set {
  reference rhf
  basis cc-pvdz
  e_convergence 9
  d_convergence 10
  maxiter 300
  normal_modes_write true
  INTCOS_GENERATE_EXIT true
}

opt('ccsd(t)')
#freq('ccsd(t)')
--------------------------------------------------------------------------

    Molecular point group: c2v
  Charge       = 0
  Multiplicity = 1
  Basis Set: CC-PVDZ
    Blend: CC-PVDZ

    Orbital Energies [Eh]
    ---------------------

    Doubly Occupied:

       1A1   -20.553406     2A1    -1.334289     1B1    -0.689639
       3A1    -0.570244     1B2    -0.493468

  @RHF Final Energy:   -76.02612653854659

   => Energetics <=

    Nuclear Repulsion Energy =              9.1163129474822959
    One-Electron Energy =                -123.0027874875154055
    Two-Electron Energy =                  37.8603480014865141
    Total Energy =                        -76.0261265385465919

  Dipole Moment: [D]
     X:     0.0000      Y:     2.1038      Z:     0.0000     Total:     2.1038

      * MP2 total energy                      =  -76.230983299911259
      * CCSD total energy                     =  -76.240279442726163
      * CCSD(T) total energy                  =  -76.243404691514087
    Molecular point group: c2v

  -Total gradient:
     Atom            X                  Y                   Z
    ------   -----------------  -----------------  -----------------
       1       -0.000278709647     0.000234307574     0.000000000000
       2        0.000000000000    -0.000468615147     0.000000000000
       3        0.000278709647     0.000234307574     0.000000000000

    Final optimized geometry and variables:
    Molecular point group: c2v

    Geometry (in Bohr), charge = 0, multiplicity = 1:

    H           -1.418057442022     1.021231091120     0.000000000000
    O            0.000000000000    -0.128693685687     0.000000000000
    H            1.418057442022     1.021231091120     0.000000000000

*** Psi4 exiting successfully. Buy a developer a beer!
