                               Psi4 1.4a2.dev629

  ==> Input File <==

--------------------------------------------------------------------------
# o-Benzyne preliminary computations

memory 14 gb

molecule {
  0 1
  units bohr
 C   -1.3744797604   -0.0243693703    0.0000003448
 O    1.2994613885    0.1185011918    0.0000003199
 H   -2.0773706994    1.9103392314   -0.0000799095
 H   -2.1072494171   -0.9786355057    1.6834685780
 H   -2.1072424049   -0.9787668760   -1.6833964474
 H    1.9431567333   -1.5772007911   -0.0000012959
  no_reorient
  no_com
}

set {
  basis 6-31g*
  reference rhf
  e_convergence 10
  d_convergence 10
  r_convergence 8
  maxiter 300
  dft_spherical_points 1202
  dft_radial_points 99
  freeze_core True
}

#gradient('ccsd(t)')
gradient('b3lyp')
--------------------------------------------------------------------------

    Molecular point group: c1
  Charge       = 0
  Multiplicity = 1
  Basis Set: 6-31G*
    Blend: 6-31G*
  Basis Set: (6-31G* AUX)
    Blend: CC-PVDZ-JKFIT

    Orbital Energies [Eh]
    ---------------------

    Doubly Occupied:

       1A    -19.138276     2A    -10.222872     3A     -1.012141
       4A     -0.680003     5A     -0.503179     6A     -0.435996
       7A     -0.420217     8A     -0.329880     9A     -0.264214

  @DF-RKS Final Energy:  -115.71428518028449

   => Energetics <=

    Nuclear Repulsion Energy =             40.3611234466659070
    One-Electron Energy =                -237.1186807790780620
    Two-Electron Energy =                  93.5967545336270916
    DFT Exchange-Correlation Energy =     -12.5534823814994425
    Empirical Dispersion Energy =           0.0000000000000000
    VV10 Nonlocal Energy =                  0.0000000000000000
    Total Energy =                       -115.7142851802844916

  Dipole Moment: [D]
     X:    -0.8279      Y:    -1.4822      Z:    -0.0000     Total:     1.6978

    Molecular point group: c1

    Geometry (in Bohr), charge = 0, multiplicity = 1:

       Center              X                  Y                   Z               Mass
    ------------   -----------------  -----------------  -----------------  -----------------
         C           -1.374479760400    -0.024369370300     0.000000344800    12.000000000000
         O            1.299461388500     0.118501191800     0.000000319900    15.994914619570
         H           -2.077370699400     1.910339231400    -0.000079909500     1.007825032230
         H           -2.107249417100    -0.978635505700     1.683468578000     1.007825032230
         H           -2.107242404900    -0.978766876000    -1.683396447400     1.007825032230
         H            1.943156733300    -1.577200791100    -0.000001295900     1.007825032230

  Basis Set: 6-31G*
    Blend: 6-31G*
  Basis Set: (6-31G* AUX)
    Blend: CC-PVDZ-JKFIT

  -Total Gradient:
     Atom            X                  Y                   Z
    ------   -----------------  -----------------  -----------------
       1       -0.003446295497    -0.000144125110     0.000000235909
       2        0.000899471621    -0.008976489336     0.000000262535
       3        0.000796044125    -0.002622679579    -0.000000096636
       4        0.002422488069     0.001845531375    -0.002739234090
       5        0.002422446707     0.001845722792     0.002739054418
       6       -0.003094244120     0.008052105453    -0.000000222140

*** Psi4 exiting successfully. Buy a developer a beer!
