                               Psi4 1.4a2.dev629

  ==> Input File <==

--------------------------------------------------------------------------
# o-Benzyne preliminary computations

memory 14 gb

molecule {
  0 1
  units bohr
 H    0.0000000000   -1.4231165867    0.9965658223
 O    0.0000000000   -0.0049789132   -0.1307072976
 H    0.0000000000    1.4280954999    1.0004850952
}

set {
  basis 6-31g*
  reference rhf
  e_convergence 10
  d_convergence 10
  r_convergence 8
  maxiter 300
  freeze_core True
}

e, wfn = energy('b3lyp', return_wfn = True)
psi4.print_out('Giraffe The Energy is %.12f \n'%(e))
--------------------------------------------------------------------------

    Molecular point group: cs

    Geometry (in Bohr), charge = 0, multiplicity = 1:

       Center              X                  Y                   Z               Mass
    ------------   -----------------  -----------------  -----------------  -----------------
         H            1.418973495160    -1.000895179060     0.000000000000     1.007825032230
         O            0.000835821660     0.126377940840     0.000000000000    15.994914619570
         H           -1.432238591440    -1.004814451960     0.000000000000     1.007825032230

  Charge       = 0
  Multiplicity = 1
  Basis Set: 6-31G*
    Blend: 6-31G*
  Basis Set: (6-31G* AUX)
    Blend: CC-PVDZ-JKFIT

    Orbital Energies [Eh]
    ---------------------

    Doubly Occupied:

       1Ap   -19.137296     2Ap    -1.001029     3Ap    -0.518791
       4Ap    -0.373506     1App   -0.291794

  @DF-RKS Final Energy:   -76.40884376959661

   => Energetics <=

    Nuclear Repulsion Energy =              9.1485407459306014
    One-Electron Energy =                -123.0426830122389958
    Two-Electron Energy =                  45.0452323226047753
    DFT Exchange-Correlation Energy =      -7.5599338258930109
    Empirical Dispersion Energy =           0.0000000000000000
    VV10 Nonlocal Energy =                  0.0000000000000000
    Total Energy =                        -76.4088437695966292

  Dipole Moment: [D]
     X:    -0.0066      Y:    -2.0997      Z:     0.0000     Total:     2.0998

*** Psi4 exiting successfully. Buy a developer a beer!
