                               Psi4 1.4a2.dev629

  ==> Input File <==

--------------------------------------------------------------------------
# o-Benzyne preliminary computations

memory 14 gb

molecule {
  0 1
  units bohr
 C   -1.3742835395   -0.0267737448    0.0000004175
 O    1.3059556771    0.1214742263    0.0000003033
 H   -2.0779716516    1.9098569684   -0.0000799118
 H   -2.1092818836   -0.9784853000    1.6821812620
 H   -2.1092749098   -0.9786165698   -1.6821091765
 H    1.9411321474   -1.5775877001   -0.0000013046
  no_reorient
  no_com
}

set {
  basis 6-31g*
  reference rhf
  e_convergence 10
  d_convergence 10
  r_convergence 8
  maxiter 300
  dft_spherical_points 1202
  dft_radial_points 99
  freeze_core True
}

#gradient('ccsd(t)')
gradient('b3lyp')
--------------------------------------------------------------------------

    Molecular point group: c1
  Charge       = 0
  Multiplicity = 1
  Basis Set: 6-31G*
    Blend: 6-31G*
  Basis Set: (6-31G* AUX)
    Blend: CC-PVDZ-JKFIT

    Orbital Energies [Eh]
    ---------------------

    Doubly Occupied:

       1A    -19.138583     2A    -10.223059     3A     -1.011404
       4A     -0.680055     5A     -0.502644     6A     -0.435865
       7A     -0.419395     8A     -0.330666     9A     -0.264547

  @DF-RKS Final Energy:  -115.71429052164737

   => Energetics <=

    Nuclear Repulsion Energy =             40.3094341811471963
    One-Electron Energy =                -237.0172808625455900
    Two-Electron Energy =                  93.5457716500344674
    DFT Exchange-Correlation Energy =     -12.5522154902834426
    Empirical Dispersion Energy =           0.0000000000000000
    VV10 Nonlocal Energy =                  0.0000000000000000
    Total Energy =                       -115.7142905216473707

  Dipole Moment: [D]
     X:    -0.8437      Y:    -1.4868      Z:    -0.0000     Total:     1.7095

    Molecular point group: c1

    Geometry (in Bohr), charge = 0, multiplicity = 1:

       Center              X                  Y                   Z               Mass
    ------------   -----------------  -----------------  -----------------  -----------------
         C           -1.374283539500    -0.026773744800     0.000000417500    12.000000000000
         O            1.305955677100     0.121474226300     0.000000303300    15.994914619570
         H           -2.077971651600     1.909856968400    -0.000079911800     1.007825032230
         H           -2.109281883600    -0.978485300000     1.682181262000     1.007825032230
         H           -2.109274909800    -0.978616569800    -1.682109176500     1.007825032230
         H            1.941132147400    -1.577587700100    -0.000001304600     1.007825032230

  Basis Set: 6-31G*
    Blend: 6-31G*
  Basis Set: (6-31G* AUX)
    Blend: CC-PVDZ-JKFIT

  -Total Gradient:
     Atom            X                  Y                   Z
    ------   -----------------  -----------------  -----------------
       1       -0.004672578967    -0.002296753715     0.000000291313
       2        0.003526750162    -0.008009599290     0.000000254023
       3        0.000544781620    -0.001948848874    -0.000000124519
       4        0.002112072933     0.002142701831    -0.003155013471
       5        0.002112021707     0.002142927895     0.003154815103
       6       -0.003623134133     0.007969636522    -0.000000222453

*** Psi4 exiting successfully. Buy a developer a beer!
