                               Psi4 1.4a2.dev629

  ==> Input File <==

--------------------------------------------------------------------------
# o-Benzyne preliminary computations

memory 14 gb

molecule {
  0 1
  units bohr
 H    0.0000000000   -1.4271071346    0.9978749231
 O    0.0000000000    0.0049723037   -0.1254921562
 H    0.0000000000    1.4221348309    0.9939608530
}

set {
  basis cc-pvtz
  reference rhf
  e_convergence 10
  d_convergence 10
  r_convergence 8
  maxiter 300
  freeze_core True
}

e, wfn = energy('ccsd(t)', return_wfn = True)
psi4.print_out('Giraffe The Energy is %.12f \n'%(e))
--------------------------------------------------------------------------

    Molecular point group: cs

    Geometry (in Bohr), charge = 0, multiplicity = 1:

       Center              X                  Y                   Z               Mass
    ------------   -----------------  -----------------  -----------------  -----------------
         H            1.431244726192    -0.997864616294     0.000000000000     1.007825032230
         O           -0.000834712108     0.125502463006     0.000000000000    15.994914619570
         H           -1.417997239308    -0.993950546194     0.000000000000     1.007825032230

  Charge       = 0
  Multiplicity = 1
  Basis Set: CC-PVTZ
    Blend: CC-PVTZ

    Orbital Energies [Eh]
    ---------------------

    Doubly Occupied:

       1Ap   -20.555581     2Ap    -1.345258     3Ap    -0.706813
       4Ap    -0.579152     1App   -0.504610

  @RHF Final Energy:   -76.05691898109869

   => Energetics <=

    Nuclear Repulsion Energy =              9.1760602879054325
    One-Electron Energy =                -123.0831321933633262
    Two-Electron Energy =                  37.8501529243592216
    Total Energy =                        -76.0569189810986757

  Dipole Moment: [D]
     X:     0.0092      Y:    -2.0416      Z:     0.0000     Total:     2.0416

      * MP2 total energy                      =  -76.318629451279918
      * CCSD total energy                     =  -76.324517776146351
      * CCSD(T) total energy                  =  -76.332188972883586
*** Psi4 exiting successfully. Buy a developer a beer!
