                               Psi4 1.4a2.dev629

  ==> Input File <==

--------------------------------------------------------------------------
# o-Benzyne preliminary computations

memory 14 gb

molecule {
  0 1
  units bohr
 H    0.0000000000   -1.4297526398    0.9934268631
 O    0.0000000000    0.0000000000   -0.1205101062
 H    0.0000000000    1.4297526398    0.9934268631
}

set {
  basis cc-pvtz
  reference rhf
  e_convergence 10
  d_convergence 10
  r_convergence 8
  maxiter 300
  freeze_core True
}

e, wfn = energy('ccsd(t)', return_wfn = True)
psi4.print_out('Giraffe The Energy is %.12f \n'%(e))
--------------------------------------------------------------------------

    Molecular point group: c2v

    Geometry (in Bohr), charge = 0, multiplicity = 1:

       Center              X                  Y                   Z               Mass
    ------------   -----------------  -----------------  -----------------  -----------------
         H            0.000000000000    -1.429752639800     0.989270854530     1.007825032230
         O            0.000000000000     0.000000000000    -0.124666114770    15.994914619570
         H           -0.000000000000     1.429752639800     0.989270854530     1.007825032230

  Charge       = 0
  Multiplicity = 1
  Basis Set: CC-PVTZ
    Blend: CC-PVTZ

    Orbital Energies [Eh]
    ---------------------

    Doubly Occupied:

       1A1   -20.555247     2A1    -1.344962     1B2    -0.708072
       3A1    -0.578073     1B1    -0.504441

  @RHF Final Energy:   -76.05701348045150

   => Energetics <=

    Nuclear Repulsion Energy =              9.1774422474929374
    One-Electron Energy =                -123.0873212356810882
    Two-Electron Energy =                  37.8528655077366381
    Total Energy =                        -76.0570134804515163

  Dipole Moment: [D]
     X:     0.0000      Y:     0.0000      Z:     2.0322     Total:     2.0322

      * MP2 total energy                      =  -76.318647651436009
      * CCSD total energy                     =  -76.324545902798434
      * CCSD(T) total energy                  =  -76.332208449591278
*** Psi4 exiting successfully. Buy a developer a beer!
