                               Psi4 1.4a2.dev629

  ==> Input File <==

--------------------------------------------------------------------------
# o-Benzyne preliminary computations

memory 14 gb

molecule {
  0 1
  units bohr
 C   -1.3758633513   -0.0217760437    0.0000002822
 O    1.3060725544    0.1199271368    0.0000002968
 H   -2.0777789359    1.9093720648   -0.0000799082
 H   -2.1086859489   -0.9800620358    1.6817600589
 H   -2.1086788628   -0.9801932457   -1.6816878244
 H    1.9412103845   -1.5773999963   -0.0000013153
  no_reorient
  no_com
}

set {
  basis 6-31g*
  reference rhf
  e_convergence 10
  d_convergence 10
  r_convergence 8
  maxiter 300
  dft_spherical_points 1202
  dft_radial_points 99
  freeze_core True
}

#gradient('ccsd(t)')
gradient('b3lyp')
--------------------------------------------------------------------------

    Molecular point group: c1
  Charge       = 0
  Multiplicity = 1
  Basis Set: 6-31G*
    Blend: 6-31G*
  Basis Set: (6-31G* AUX)
    Blend: CC-PVDZ-JKFIT

    Orbital Energies [Eh]
    ---------------------

    Doubly Occupied:

       1A    -19.138281     2A    -10.223065     3A     -1.011155
       4A     -0.680281     5A     -0.502554     6A     -0.435360
       7A     -0.420052     8A     -0.330652     9A     -0.264286

  @DF-RKS Final Energy:  -115.71426860097361

   => Energetics <=

    Nuclear Repulsion Energy =             40.3060960589989676
    One-Electron Energy =                -237.0113418923271524
    Two-Electron Energy =                  93.5435911901521422
    DFT Exchange-Correlation Energy =     -12.5526139577975702
    Empirical Dispersion Energy =           0.0000000000000000
    VV10 Nonlocal Energy =                  0.0000000000000000
    Total Energy =                       -115.7142686009736110

  Dipole Moment: [D]
     X:    -0.8473      Y:    -1.4823      Z:    -0.0000     Total:     1.7074

    Molecular point group: c1

    Geometry (in Bohr), charge = 0, multiplicity = 1:

       Center              X                  Y                   Z               Mass
    ------------   -----------------  -----------------  -----------------  -----------------
         C           -1.375863351300    -0.021776043700     0.000000282200    12.000000000000
         O            1.306072554400     0.119927136800     0.000000296800    15.994914619570
         H           -2.077778935900     1.909372064800    -0.000079908200     1.007825032230
         H           -2.108685948900    -0.980062035800     1.681760058900     1.007825032230
         H           -2.108678862800    -0.980193245700    -1.681687824400     1.007825032230
         H            1.941210384500    -1.577399996300    -0.000001315300     1.007825032230

  Basis Set: 6-31G*
    Blend: 6-31G*
  Basis Set: (6-31G* AUX)
    Blend: CC-PVDZ-JKFIT

  -Total Gradient:
     Atom            X                  Y                   Z
    ------   -----------------  -----------------  -----------------
       1       -0.005669188637     0.001392001207     0.000000179061
       2        0.003998959923    -0.009513129053     0.000000256431
       3        0.001057236571    -0.003749491841    -0.000000053699
       4        0.002092562708     0.001523330203    -0.002753047943
       5        0.002092522507     0.001523525017     0.002752884960
       6       -0.003572176525     0.008823829974    -0.000000218813

*** Psi4 exiting successfully. Buy a developer a beer!
