                               Psi4 1.4a2.dev629

  ==> Input File <==

--------------------------------------------------------------------------
# o-Benzyne preliminary computations

memory 14 gb

molecule {
  0 1
  units bohr
 C   -1.3719481126   -0.0205570563   -0.0000003049
 O    1.3054488879    0.1210761732   -0.0000006055
 H   -2.0838167140    1.9100359615   -0.0000786216
 H   -2.1021906969   -0.9799601901    1.6812247864
 H   -2.1021828330   -0.9800923943   -1.6811531210
 H    1.9309653087   -1.5806346139   -0.0000005435
}

set {
  basis cc-pvtz
  reference rhf
  e_convergence 10
  d_convergence 10
  r_convergence 8
  maxiter 300
  freeze_core True
}

e, wfn = energy('ccsd(t)', return_wfn = True)
psi4.print_out('Giraffe The Energy is %.12f \n'%(e))
--------------------------------------------------------------------------

    Molecular point group: c1

    Geometry (in Bohr), charge = 0, multiplicity = 1:

       Center              X                  Y                   Z               Mass
    ------------   -----------------  -----------------  -----------------  -----------------
         C           -1.372755132425    -0.022009217983     0.000000347756    12.000000000000
         O            1.304641868075     0.119624011517     0.000000047156    15.994914619570
         H           -2.084623733825     1.908583799817    -0.000077968944     1.007825032230
         H           -2.102997716725    -0.981412351783     1.681225439056     1.007825032230
         H           -2.102989852825    -0.981544555983    -1.681152468344     1.007825032230
         H            1.930158288875    -1.582086775583     0.000000109156     1.007825032230

  Charge       = 0
  Multiplicity = 1
  Basis Set: CC-PVTZ
    Blend: CC-PVTZ

    Orbital Energies [Eh]
    ---------------------

    Doubly Occupied:

       1A    -20.552681     2A    -11.269591     3A     -1.355024
       4A     -0.922869     5A     -0.688248     6A     -0.618004
       7A     -0.590823     8A     -0.502095     9A     -0.448841

  @RHF Final Energy:  -115.08915806821003

   => Energetics <=

    Nuclear Repulsion Energy =             40.3429217736092411
    One-Electron Energy =                -236.9678109606376211
    Two-Electron Energy =                  81.5357311188183473
    Total Energy =                       -115.0891580682100255

  Dipole Moment: [D]
     X:    -0.9850      Y:    -1.4947      Z:    -0.0000     Total:     1.7900

      * MP2 total energy                      = -115.517443684253550
      * CCSD total energy                     = -115.535998472999665
      * CCSD(T) total energy                  = -115.550777075222612
*** Psi4 exiting successfully. Buy a developer a beer!
