                               Psi4 1.4a2.dev629

  ==> Input File <==

--------------------------------------------------------------------------
# o-Benzyne preliminary computations

memory 14 gb

molecule {
  0 1
  units bohr
 C   -1.3750689722   -0.0242719870   -0.0015693720
 O    1.3060139010    0.1207030827   -0.0010273743
 H   -2.0778690936    1.9096089993    0.0043611747
 H   -2.1113247697   -0.9760962966    1.6814561322
 H   -2.1066466590   -0.9825848853   -1.6824047087
 H    1.9411714336   -1.5774910332   -0.0008242619
}

set {
  basis cc-pvtz
  reference rhf
  e_convergence 10
  d_convergence 10
  r_convergence 8
  maxiter 300
  freeze_core True
}

e, wfn = energy('ccsd(t)', return_wfn = True)
psi4.print_out('Giraffe The Energy is %.12f \n'%(e))
--------------------------------------------------------------------------

    Molecular point group: c1

    Geometry (in Bohr), charge = 0, multiplicity = 1:

       Center              X                  Y                   Z               Mass
    ------------   -----------------  -----------------  -----------------  -----------------
         C           -1.375069242522    -0.024274501587    -0.000549687396    12.000000000000
         O            1.306013630678     0.120700568113    -0.000007689696    15.994914619570
         H           -2.077869363922     1.909606484713     0.005380859304     1.007825032230
         H           -2.111325040022    -0.976098811187     1.682475816804     1.007825032230
         H           -2.106646929322    -0.982587399887    -1.681385024096     1.007825032230
         H            1.941171163278    -1.577493547787     0.000195422704     1.007825032230

  Charge       = 0
  Multiplicity = 1
  Basis Set: CC-PVTZ
    Blend: CC-PVTZ

    Orbital Energies [Eh]
    ---------------------

    Doubly Occupied:

       1A    -20.552620     2A    -11.269754     3A     -1.354104
       4A     -0.923076     5A     -0.687874     6A     -0.617666
       7A     -0.590041     8A     -0.502056     9A     -0.449144

  @RHF Final Energy:  -115.08911178460389

   => Energetics <=

    Nuclear Repulsion Energy =             40.3077931197441188
    One-Electron Energy =                -236.9011386631875666
    Two-Electron Energy =                  81.5042337588395469
    Total Energy =                       -115.0891117846038867

  Dipole Moment: [D]
     X:    -0.9842      Y:    -1.4950      Z:     0.0010     Total:     1.7899

      * MP2 total energy                      = -115.517446271070227
      * CCSD total energy                     = -115.535993592082292
      * CCSD(T) total energy                  = -115.550783777885158
*** Psi4 exiting successfully. Buy a developer a beer!
