                               Psi4 1.4a2.dev629

  ==> Input File <==

--------------------------------------------------------------------------
# o-Benzyne preliminary computations

memory 14 gb

molecule {
  0 1
  units bohr
 H   -0.0000000000   -1.4297313388    0.9934220601
 O    0.0000000000   -0.0000001559   -0.1205006228
 H    0.0000000000    1.4297314947    0.9934221828
}

set {
  basis cc-pvtz
  reference rhf
  e_convergence 10
  d_convergence 10
  r_convergence 8
  maxiter 300
  freeze_core True
}

e, wfn = energy('ccsd(t)', return_wfn = True)
psi4.print_out('Giraffe The Energy is %.12f \n'%(e))
--------------------------------------------------------------------------

    Molecular point group: cs

    Geometry (in Bohr), charge = 0, multiplicity = 1:

       Center              X                  Y                   Z               Mass
    ------------   -----------------  -----------------  -----------------  -----------------
         H            1.429731209071    -0.989258160125     0.000000000000     1.007825032230
         O            0.000000026171     0.124664522775     0.000000000000    15.994914619570
         H           -1.429731624429    -0.989258282825     0.000000000000     1.007825032230

  Charge       = 0
  Multiplicity = 1
  Basis Set: CC-PVTZ
    Blend: CC-PVTZ

    Orbital Energies [Eh]
    ---------------------

    Doubly Occupied:

       1Ap   -20.555245     2Ap    -1.344969     3Ap    -0.708079
       4Ap    -0.578075     1App   -0.504442

  @RHF Final Energy:   -76.05701446913497

   => Energetics <=

    Nuclear Repulsion Energy =              9.1775715629586756
    One-Electron Energy =                -123.0875503030477347
    Two-Electron Energy =                  37.8529642709540894
    Total Energy =                        -76.0570144691349697

  Dipole Moment: [D]
     X:    -0.0000      Y:    -2.0322      Z:     0.0000     Total:     2.0322

      * MP2 total energy                      =  -76.318647676000708
      * CCSD total energy                     =  -76.324546016963922
      * CCSD(T) total energy                  =  -76.332208453304901
*** Psi4 exiting successfully. Buy a developer a beer!
