                               Psi4 1.4a2.dev629

  ==> Input File <==

--------------------------------------------------------------------------
# o-Benzyne preliminary computations

memory 14 gb

molecule {
  0 1
  units bohr
 C   -1.3738490042   -0.0234154608    0.0000000680
 O    1.3068860059    0.1209490986   -0.0000001190
 H   -2.0777208444    1.9129609970   -0.0000794322
 H   -2.1104424034   -0.9815735782    1.6874227081
 H   -2.1104353238   -0.9817057593   -1.6873506856
 H    1.9418374098   -1.5773474173   -0.0000009494
}

set {
  basis cc-pvtz
  reference rhf
  e_convergence 10
  d_convergence 10
  r_convergence 8
  maxiter 300
  freeze_core True
}

e, wfn = energy('ccsd(t)', return_wfn = True)
psi4.print_out('Giraffe The Energy is %.12f \n'%(e))
--------------------------------------------------------------------------

    Molecular point group: c1

    Geometry (in Bohr), charge = 0, multiplicity = 1:

       Center              X                  Y                   Z               Mass
    ------------   -----------------  -----------------  -----------------  -----------------
         C           -1.374676110162    -0.023827082377     0.000000365004    12.000000000000
         O            1.306058899938     0.120537477023     0.000000178004    15.994914619570
         H           -2.078547950362     1.912549375423    -0.000079135196     1.007825032230
         H           -2.111269509362    -0.981985199777     1.687423005104     1.007825032230
         H           -2.111262429762    -0.982117380877    -1.687350388596     1.007825032230
         H            1.941010303838    -1.577759038877    -0.000000652396     1.007825032230

  Charge       = 0
  Multiplicity = 1
  Basis Set: CC-PVTZ
    Blend: CC-PVTZ

    Orbital Energies [Eh]
    ---------------------

    Doubly Occupied:

       1A    -20.552832     2A    -11.270841     3A     -1.354310
       4A     -0.922171     5A     -0.687707     6A     -0.616980
       7A     -0.590089     8A     -0.501758     9A     -0.448863

  @RHF Final Energy:  -115.08899738270784

   => Energetics <=

    Nuclear Repulsion Energy =             40.2783773336747117
    One-Electron Energy =                -236.8436471505967802
    Two-Electron Energy =                  81.4762724342142235
    Total Energy =                       -115.0889973827078450

  Dipole Moment: [D]
     X:    -0.9786      Y:    -1.4923      Z:    -0.0000     Total:     1.7846

      * MP2 total energy                      = -115.517395866358470
      * CCSD total energy                     = -115.535961194324415
      * CCSD(T) total energy                  = -115.550769897671501
*** Psi4 exiting successfully. Buy a developer a beer!
