                               Psi4 1.4a2.dev629

  ==> Input File <==

--------------------------------------------------------------------------
# o-Benzyne preliminary computations

memory 14 gb

molecule {
  0 1
  units bohr
 C   -1.3715953205   -0.0241052032    0.0000003367
 O    1.3041373459    0.1234567962    0.0000003105
 H   -2.0779679828    1.9079443426   -0.0000798848
 H   -2.1027227620   -0.9798888573    1.6819405784
 H   -2.1027154832   -0.9800200810   -1.6818684489
 H    1.9271400426   -1.5775191174   -0.0000013019
  no_reorient
  no_com
}

set {
  basis 6-31g*
  reference rhf
  e_convergence 10
  d_convergence 10
  r_convergence 8
  maxiter 300
  dft_spherical_points 1202
  dft_radial_points 99
  freeze_core True
}

#gradient('ccsd(t)')
gradient('b3lyp')
--------------------------------------------------------------------------

    Molecular point group: c1
  Charge       = 0
  Multiplicity = 1
  Basis Set: 6-31G*
    Blend: 6-31G*
  Basis Set: (6-31G* AUX)
    Blend: CC-PVDZ-JKFIT

    Orbital Energies [Eh]
    ---------------------

    Doubly Occupied:

       1A    -19.138522     2A    -10.222750     3A     -1.012685
       4A     -0.680006     5A     -0.503131     6A     -0.436141
       7A     -0.419965     8A     -0.331128     9A     -0.264463

  @DF-RKS Final Energy:  -115.71423875287331

   => Energetics <=

    Nuclear Repulsion Energy =             40.3667530978633309
    One-Electron Energy =                -237.1253179271467388
    Two-Electron Energy =                  93.5985297294743361
    DFT Exchange-Correlation Energy =     -12.5542036530642296
    Empirical Dispersion Energy =           0.0000000000000000
    VV10 Nonlocal Energy =                  0.0000000000000000
    Total Energy =                       -115.7142387528733138

  Dipole Moment: [D]
     X:    -0.8458      Y:    -1.4862      Z:    -0.0000     Total:     1.7100

    Molecular point group: c1

    Geometry (in Bohr), charge = 0, multiplicity = 1:

       Center              X                  Y                   Z               Mass
    ------------   -----------------  -----------------  -----------------  -----------------
         C           -1.371595320500    -0.024105203200     0.000000336700    12.000000000000
         O            1.304137345900     0.123456796200     0.000000310500    15.994914619570
         H           -2.077967982800     1.907944342600    -0.000079884800     1.007825032230
         H           -2.102722762000    -0.979888857300     1.681940578400     1.007825032230
         H           -2.102715483200    -0.980020081000    -1.681868448900     1.007825032230
         H            1.927140042600    -1.577519117400    -0.000001301900     1.007825032230

  Basis Set: 6-31G*
    Blend: 6-31G*
  Basis Set: (6-31G* AUX)
    Blend: CC-PVDZ-JKFIT

  -Total Gradient:
     Atom            X                  Y                   Z
    ------   -----------------  -----------------  -----------------
       1       -0.003645797283    -0.001066224767     0.000000228148
       2        0.002574029405    -0.008837698359     0.000000259878
       3        0.001055989928    -0.003031291910    -0.000000081808
       4        0.002409305977     0.001971258480    -0.003123437375
       5        0.002409260506     0.001971482744     0.003123254770
       6       -0.004802871629     0.008992538751    -0.000000223616

*** Psi4 exiting successfully. Buy a developer a beer!
