                               Psi4 1.4a2.dev629

  ==> Input File <==

--------------------------------------------------------------------------
# o-Benzyne preliminary computations

memory 14 gb

molecule {
  0 1
  units bohr
 C   -1.3771694310   -0.0240120448   -0.0000004736
 O    1.3044776128    0.1209946547    0.0000006933
 H   -2.0758865015    1.9112500735   -0.0000773519
 H   -2.1075169406   -0.9805623951    1.6825119139
 H   -2.1075056160   -0.9806987043   -1.6824398843
 H    1.9398767164   -1.5771037040   -0.0000033074
}

set {
  basis cc-pvtz
  reference rhf
  e_convergence 10
  d_convergence 10
  r_convergence 8
  maxiter 300
  freeze_core True
}

e, wfn = energy('ccsd(t)', return_wfn = True)
psi4.print_out('Giraffe The Energy is %.12f \n'%(e))
--------------------------------------------------------------------------

    Molecular point group: c1

    Geometry (in Bohr), charge = 0, multiplicity = 1:

       Center              X                  Y                   Z               Mass
    ------------   -----------------  -----------------  -----------------  -----------------
         C           -1.375729846507    -0.024240222832    -0.000000370836    12.000000000000
         O            1.305917197293     0.120766476668     0.000000796064    15.994914619570
         H           -2.074446917007     1.911021895468    -0.000077249136     1.007825032230
         H           -2.106077356107    -0.980790573132     1.682512016664     1.007825032230
         H           -2.106066031507    -0.980926882332    -1.682439781536     1.007825032230
         H            1.941316300893    -1.577331882032    -0.000003204636     1.007825032230

  Charge       = 0
  Multiplicity = 1
  Basis Set: CC-PVTZ
    Blend: CC-PVTZ

    Orbital Energies [Eh]
    ---------------------

    Doubly Occupied:

       1A    -20.552436     2A    -11.269758     3A     -1.353924
       4A     -0.923005     5A     -0.687784     6A     -0.617720
       7A     -0.589831     8A     -0.502159     9A     -0.449083

  @RHF Final Energy:  -115.08911937837024

   => Energetics <=

    Nuclear Repulsion Energy =             40.3072304045594407
    One-Electron Energy =                -236.9012995860400395
    Two-Electron Energy =                  81.5049498031103496
    Total Energy =                       -115.0891193783702420

  Dipole Moment: [D]
     X:    -0.9854      Y:    -1.4951      Z:    -0.0000     Total:     1.7906

      * MP2 total energy                      = -115.517447368328348
      * CCSD total energy                     = -115.535995278711781
      * CCSD(T) total energy                  = -115.550784847851887
*** Psi4 exiting successfully. Buy a developer a beer!
