                               Psi4 1.4a2.dev629

  ==> Input File <==

--------------------------------------------------------------------------
# o-Benzyne preliminary computations

memory 14 gb

molecule {
  0 1
  units bohr
 C   -1.3750737070   -0.0242786003   -0.0011356070
 O    1.3060142508    0.1206932444   -0.0042801285
 H   -2.0778677914    1.9096111156    0.0019469099
 H   -2.1096017198   -0.9798390581    1.6820232078
 H   -2.1083720163   -0.9788364267   -1.6818531656
 H    1.9411768238   -1.5774823950    0.0032903734
  no_reorient
  no_com
}

set {
  basis 6-31g*
  reference rhf
  e_convergence 10
  d_convergence 10
  r_convergence 8
  maxiter 300
  dft_spherical_points 1202
  dft_radial_points 99
  freeze_core True
}

#gradient('ccsd(t)')
gradient('b3lyp')
--------------------------------------------------------------------------

    Molecular point group: c1
  Charge       = 0
  Multiplicity = 1
  Basis Set: 6-31G*
    Blend: 6-31G*
  Basis Set: (6-31G* AUX)
    Blend: CC-PVDZ-JKFIT

    Orbital Energies [Eh]
    ---------------------

    Doubly Occupied:

       1A    -19.138432     2A    -10.223062     3A     -1.011279
       4A     -0.680168     5A     -0.502599     6A     -0.435617
       7A     -0.419718     8A     -0.330660     9A     -0.264417

  @DF-RKS Final Energy:  -115.71428149743292

   => Energetics <=

    Nuclear Repulsion Energy =             40.3077518554198591
    One-Electron Energy =                -237.0142911049221084
    Two-Electron Energy =                  93.5446720479271789
    DFT Exchange-Correlation Energy =     -12.5524142958578597
    Empirical Dispersion Energy =           0.0000000000000000
    VV10 Nonlocal Energy =                  0.0000000000000000
    Total Energy =                       -115.7142814974329212

  Dipole Moment: [D]
     X:    -0.8455      Y:    -1.4845      Z:     0.0078     Total:     1.7084

    Molecular point group: c1

    Geometry (in Bohr), charge = 0, multiplicity = 1:

       Center              X                  Y                   Z               Mass
    ------------   -----------------  -----------------  -----------------  -----------------
         C           -1.375073707000    -0.024278600300    -0.001135607000    12.000000000000
         O            1.306014250800     0.120693244400    -0.004280128500    15.994914619570
         H           -2.077867791400     1.909611115600     0.001946909900     1.007825032230
         H           -2.109601719800    -0.979839058100     1.682023207800     1.007825032230
         H           -2.108372016300    -0.978836426700    -1.681853165600     1.007825032230
         H            1.941176823800    -1.577482395000     0.003290373400     1.007825032230

  Basis Set: 6-31G*
    Blend: 6-31G*
  Basis Set: (6-31G* AUX)
    Blend: CC-PVDZ-JKFIT

  -Total Gradient:
     Atom            X                  Y                   Z
    ------   -----------------  -----------------  -----------------
       1       -0.005169260344    -0.000459600695    -0.000708056017
       2        0.003762941393    -0.008759778091    -0.000133302445
       3        0.000799586566    -0.002844799283     0.000131719144
       4        0.001811269461     0.001686923043    -0.002595136952
       5        0.002392833821     0.001981340688     0.003312471329
       6       -0.003597456002     0.008395979368    -0.000007694876

*** Psi4 exiting successfully. Buy a developer a beer!
