                               Psi4 1.4a2.dev629

  ==> Input File <==

--------------------------------------------------------------------------
# o-Benzyne preliminary computations

memory 14 gb

molecule {
  0 1
  units bohr
 H   -0.0000000000   -1.4256007002    0.9985291424
 O    0.0000000000    0.0000000000   -0.1307146648
 H    0.0000000000    1.4256007002    0.9985291424
}

set {
  basis 6-31g*
  reference rhf
  e_convergence 10
  d_convergence 10
  r_convergence 8
  maxiter 300
  freeze_core True
}

e, wfn = energy('b3lyp', return_wfn = True)
psi4.print_out('Giraffe The Energy is %.12f \n'%(e))
--------------------------------------------------------------------------

    Molecular point group: c2v

    Geometry (in Bohr), charge = 0, multiplicity = 1:

       Center              X                  Y                   Z               Mass
    ------------   -----------------  -----------------  -----------------  -----------------
         H            0.000000000000    -1.425600700200     1.002864629606     1.007825032230
         O            0.000000000000     0.000000000000    -0.126379177594    15.994914619570
         H           -0.000000000000     1.425600700200     1.002864629606     1.007825032230

  Charge       = 0
  Multiplicity = 1
  Basis Set: 6-31G*
    Blend: 6-31G*
  Basis Set: (6-31G* AUX)
    Blend: CC-PVDZ-JKFIT

    Orbital Energies [Eh]
    ---------------------

    Doubly Occupied:

       1A1   -19.137298     2A1    -1.001017     1B2    -0.518792
       3A1    -0.373506     1B1    -0.291792

  @DF-RKS Final Energy:   -76.40887114871298

   => Energetics <=

    Nuclear Repulsion Energy =              9.1484092538096249
    One-Electron Energy =                -123.0425049088758271
    Two-Electron Energy =                  45.0451477471102919
    DFT Exchange-Correlation Energy =      -7.5599232407570751
    Empirical Dispersion Energy =           0.0000000000000000
    VV10 Nonlocal Energy =                  0.0000000000000000
    Total Energy =                        -76.4088711487129757

  Dipole Moment: [D]
     X:     0.0000      Y:     0.0000      Z:     2.0998     Total:     2.0998

*** Psi4 exiting successfully. Buy a developer a beer!
