                               Psi4 1.4a2.dev629

  ==> Input File <==

--------------------------------------------------------------------------
# o-Benzyne preliminary computations

memory 14 gb

molecule {
  0 1
  units bohr
 H    0.0000000000   -1.4271169250    0.9978774384
 O    0.0000000000    0.0049723111   -0.1254971809
 H    0.0000000000    1.4221446140    0.9939633625
}

set {
  basis cc-pvdz
  reference rhf
  e_convergence 10
  d_convergence 10
  r_convergence 8
  maxiter 300
  freeze_core True
}

e, wfn = energy('ccsd(t)', return_wfn = True)
psi4.print_out('Giraffe The Energy is %.12f \n'%(e))
--------------------------------------------------------------------------

    Molecular point group: cs

    Geometry (in Bohr), charge = 0, multiplicity = 1:

       Center              X                  Y                   Z               Mass
    ------------   -----------------  -----------------  -----------------  -----------------
         H            1.431254522756    -0.997871312780     0.000000000000     1.007825032230
         O           -0.000834713344     0.125503306520     0.000000000000    15.994914619570
         H           -1.418007016244    -0.993957236880     0.000000000000     1.007825032230

  Charge       = 0
  Multiplicity = 1
  Basis Set: CC-PVDZ
    Blend: CC-PVDZ

    Orbital Energies [Eh]
    ---------------------

    Doubly Occupied:

       1Ap   -20.551320     2Ap    -1.336345     3Ap    -0.696362
       4Ap    -0.568076     1App   -0.493331

  @RHF Final Energy:   -76.02665213455086

   => Energetics <=

    Nuclear Repulsion Energy =              9.1759977518811340
    One-Electron Energy =                -123.1144316272908839
    Two-Electron Energy =                  37.9117817408588991
    Total Energy =                        -76.0266521345508437

  Dipole Moment: [D]
     X:     0.0088      Y:    -2.0725      Z:     0.0000     Total:     2.0725

      * MP2 total energy                      =  -76.228527116034954
      * CCSD total energy                     =  -76.238084524395063
      * CCSD(T) total energy                  =  -76.241137952961239
*** Psi4 exiting successfully. Buy a developer a beer!
