                               Psi4 1.4a2.dev629

  ==> Input File <==

--------------------------------------------------------------------------
# o-Benzyne preliminary computations

memory 14 gb

molecule {
  0 1
  units bohr
 C   -1.3750722674   -0.0242788081    0.0008382290
 O    1.3060147756    0.1206919397    0.0035774666
 H   -2.0778683037    1.9096115933   -0.0013663174
 H   -2.1107397792   -0.9781494988    1.6827139215
 H   -2.1072350260   -0.9805262244   -1.6811597441
 H    1.9411764407   -1.5774811217   -0.0046119657
}

set {
  basis cc-pvtz
  reference rhf
  e_convergence 10
  d_convergence 10
  r_convergence 8
  maxiter 300
  freeze_core True
}

e, wfn = energy('ccsd(t)', return_wfn = True)
psi4.print_out('Giraffe The Energy is %.12f \n'%(e))
--------------------------------------------------------------------------

    Molecular point group: c1

    Geometry (in Bohr), charge = 0, multiplicity = 1:

       Center              X                  Y                   Z               Mass
    ------------   -----------------  -----------------  -----------------  -----------------
         C           -1.375071816007    -0.024273767010    -0.001123329581    12.000000000000
         O            1.306015226993     0.120696980790     0.001615908019    15.994914619570
         H           -2.077867852307     1.909616634390    -0.003327875981     1.007825032230
         H           -2.110739327807    -0.978144457710     1.680752362919     1.007825032230
         H           -2.107234574607    -0.980521183310    -1.683121302681     1.007825032230
         H            1.941176892093    -1.577476080610    -0.006573524281     1.007825032230

  Charge       = 0
  Multiplicity = 1
  Basis Set: CC-PVTZ
    Blend: CC-PVTZ

    Orbital Energies [Eh]
    ---------------------

    Doubly Occupied:

       1A    -20.552620     2A    -11.269754     3A     -1.354102
       4A     -0.923076     5A     -0.687873     6A     -0.617659
       7A     -0.590047     8A     -0.502057     9A     -0.449146

  @RHF Final Energy:  -115.08911476117714

   => Energetics <=

    Nuclear Repulsion Energy =             40.3077556725246851
    One-Electron Energy =                -236.9010734790907406
    Two-Electron Energy =                  81.5042030453889197
    Total Energy =                       -115.0891147611771430

  Dipole Moment: [D]
     X:    -0.9842      Y:    -1.4950      Z:    -0.0091     Total:     1.7899

      * MP2 total energy                      = -115.517448969839478
      * CCSD total energy                     = -115.535996293019849
      * CCSD(T) total energy                  = -115.550786451404349
*** Psi4 exiting successfully. Buy a developer a beer!
