                               Psi4 1.4a2.dev629

  ==> Input File <==

--------------------------------------------------------------------------
# o-Benzyne preliminary computations

memory 14 gb

molecule {
  0 1
  units bohr
 H   -0.0000000000   -1.4231165924    0.9965657988
 O    0.0000000000   -0.0049789280   -0.1307072622
 H    0.0000000000    1.4280955205    1.0004850834
}

set {
  basis cc-pvdz
  reference rhf
  e_convergence 10
  d_convergence 10
  r_convergence 8
  maxiter 300
  freeze_core True
}

e, wfn = energy('ccsd(t)', return_wfn = True)
psi4.print_out('Giraffe The Energy is %.12f \n'%(e))
--------------------------------------------------------------------------

    Molecular point group: cs

    Geometry (in Bohr), charge = 0, multiplicity = 1:

       Center              X                  Y                   Z               Mass
    ------------   -----------------  -----------------  -----------------  -----------------
         H            1.418973488550    -1.000895126097     0.000000000000     1.007825032230
         O            0.000835824150     0.126377934903     0.000000000000    15.994914619570
         H           -1.432238624350    -1.004814410697     0.000000000000     1.007825032230

  Charge       = 0
  Multiplicity = 1
  Basis Set: CC-PVDZ
    Blend: CC-PVDZ

    Orbital Energies [Eh]
    ---------------------

    Doubly Occupied:

       1Ap   -20.552035     2Ap    -1.335124     3Ap    -0.694123
       4Ap    -0.568241     1App   -0.493250

  @RHF Final Energy:   -76.02646412528723

   => Energetics <=

    Nuclear Repulsion Energy =              9.1485408528986500
    One-Electron Energy =                -123.0644654734362575
    Two-Electron Energy =                  37.8894604952503826
    Total Energy =                        -76.0264641252872195

  Dipole Moment: [D]
     X:    -0.0087      Y:    -2.0806      Z:     0.0000     Total:     2.0806

      * MP2 total energy                      =  -76.228587771690925
      * CCSD total energy                     =  -76.238142602872372
      * CCSD(T) total energy                  =  -76.241213603329228
*** Psi4 exiting successfully. Buy a developer a beer!
