                               Psi4 1.4a2.dev629

  ==> Input File <==

--------------------------------------------------------------------------
# o-Benzyne preliminary computations

memory 14 gb

molecule {
  0 1
  units bohr
 H    0.0000000000   -1.4190018360    0.9944779330
 O    0.0000000000   -0.0000089995   -0.1226193301
 H    0.0000000000    1.4190108355    0.9944850171
}

set {
  basis cc-pvtz
  reference rhf
  e_convergence 10
  d_convergence 10
  r_convergence 8
  maxiter 300
  freeze_core True
}

e, wfn = energy('ccsd(t)', return_wfn = True)
psi4.print_out('Giraffe The Energy is %.12f \n'%(e))
--------------------------------------------------------------------------

    Molecular point group: cs

    Geometry (in Bohr), charge = 0, multiplicity = 1:

       Center              X                  Y                   Z               Mass
    ------------   -----------------  -----------------  -----------------  -----------------
         H            1.418994347267    -0.992077068042     0.000000000000     1.007825032230
         O            0.000001510767     0.125020195058     0.000000000000    15.994914619570
         H           -1.419018324233    -0.992084152142     0.000000000000     1.007825032230

  Charge       = 0
  Multiplicity = 1
  Basis Set: CC-PVTZ
    Blend: CC-PVTZ

    Orbital Energies [Eh]
    ---------------------

    Doubly Occupied:

       1Ap   -20.554917     2Ap    -1.347193     3Ap    -0.708839
       4Ap    -0.579880     1App   -0.504913

  @RHF Final Energy:   -76.05719541109210

   => Energetics <=

    Nuclear Repulsion Energy =              9.2119109003647335
    One-Electron Energy =                -123.1467292618639249
    Two-Electron Energy =                  37.8776229504071011
    Total Energy =                        -76.0571954110920956

  Dipole Moment: [D]
     X:    -0.0000      Y:    -2.0386      Z:     0.0000     Total:     2.0386

      * MP2 total energy                      =  -76.318635511449727
      * CCSD total energy                     =  -76.324548943526210
      * CCSD(T) total energy                  =  -76.332189154577975
*** Psi4 exiting successfully. Buy a developer a beer!
