                               Psi4 1.4a2.dev629

  ==> Input File <==

--------------------------------------------------------------------------
# o-Benzyne preliminary computations

memory 14 gb

molecule {
  0 1
  units bohr
 C   -1.3750812791   -0.0242802406    0.0015700855
 O    1.3060147294    0.1207000216    0.0010279667
 H   -2.0778755807    1.9096022879   -0.0045210159
 H   -2.1066455860   -0.9824430026    1.6824882492
 H   -2.1113096028   -0.9762168625   -1.6813953274
 H    1.9411731592   -1.5774943238    0.0008216320
}

set {
  basis cc-pvtz
  reference rhf
  e_convergence 10
  d_convergence 10
  r_convergence 8
  maxiter 300
  freeze_core True
}

e, wfn = energy('ccsd(t)', return_wfn = True)
psi4.print_out('Giraffe The Energy is %.12f \n'%(e))
--------------------------------------------------------------------------

    Molecular point group: c1

    Geometry (in Bohr), charge = 0, multiplicity = 1:

       Center              X                  Y                   Z               Mass
    ------------   -----------------  -----------------  -----------------  -----------------
         C           -1.375077713053    -0.024278489872     0.000550408086    12.000000000000
         O            1.306018295447     0.120701772328     0.000008289286    15.994914619570
         H           -2.077872014653     1.909604038628    -0.005540693314     1.007825032230
         H           -2.106642019953    -0.982441251872     1.681468571786     1.007825032230
         H           -2.111306036753    -0.976215111772    -1.682415004814     1.007825032230
         H            1.941176725247    -1.577492573072    -0.000198045414     1.007825032230

  Charge       = 0
  Multiplicity = 1
  Basis Set: CC-PVTZ
    Blend: CC-PVTZ

    Orbital Energies [Eh]
    ---------------------

    Doubly Occupied:

       1A    -20.552619     2A    -11.269754     3A     -1.354101
       4A     -0.923077     5A     -0.687872     6A     -0.617668
       7A     -0.590039     8A     -0.502056     9A     -0.449145

  @RHF Final Energy:  -115.08911169017433

   => Energetics <=

    Nuclear Repulsion Energy =             40.3077198358430451
    One-Electron Energy =                -236.9010038204127682
    Two-Electron Energy =                  81.5041722943953886
    Total Energy =                       -115.0891116901743345

  Dipole Moment: [D]
     X:    -0.9842      Y:    -1.4950      Z:    -0.0010     Total:     1.7899

      * MP2 total energy                      = -115.517446275742174
      * CCSD total energy                     = -115.535993570345269
      * CCSD(T) total energy                  = -115.550783775499440
*** Psi4 exiting successfully. Buy a developer a beer!
