                               Psi4 1.4a2.dev629

  ==> Input File <==

--------------------------------------------------------------------------
# o-Benzyne preliminary computations

memory 14 gb

molecule {
  0 1
  units bohr
 H    0.0000000000   -1.4297377372    0.9934235292
 O    0.0000000000   -0.0000000000   -0.1205034384
 H    0.0000000000    1.4297377372    0.9934235292
}

set {
  basis cc-pvtz
  reference rhf
  e_convergence 10
  d_convergence 10
  r_convergence 8
  maxiter 300
  freeze_core True
}

e, wfn = energy('ccsd(t)', return_wfn = True)
psi4.print_out('Giraffe The Energy is %.12f \n'%(e))
--------------------------------------------------------------------------

    Molecular point group: c2v

    Geometry (in Bohr), charge = 0, multiplicity = 1:

       Center              X                  Y                   Z               Mass
    ------------   -----------------  -----------------  -----------------  -----------------
         H            0.000000000000    -1.429737737200     0.989261972169     1.007825032230
         O            0.000000000000     0.000000000000    -0.124664995431    15.994914619570
         H           -0.000000000000     1.429737737200     0.989261972169     1.007825032230

  Charge       = 0
  Multiplicity = 1
  Basis Set: CC-PVTZ
    Blend: CC-PVTZ

    Orbital Energies [Eh]
    ---------------------

    Doubly Occupied:

       1A1   -20.555246     2A1    -1.344967     1B2    -0.708077
       3A1    -0.578075     1B1    -0.504442

  @RHF Final Energy:   -76.05701417512344

   => Energetics <=

    Nuclear Repulsion Energy =              9.1775330900361389
    One-Electron Energy =                -123.0874821572365079
    Two-Electron Energy =                  37.8529348920769237
    Total Energy =                        -76.0570141751234416

  Dipole Moment: [D]
     X:     0.0000      Y:     0.0000      Z:     2.0322     Total:     2.0322

      * MP2 total energy                      =  -76.318647668749591
      * CCSD total energy                     =  -76.324545983065065
      * CCSD(T) total energy                  =  -76.332208452258058
*** Psi4 exiting successfully. Buy a developer a beer!
