                               Psi4 1.4a2.dev629

  ==> Input File <==

--------------------------------------------------------------------------
# o-Benzyne preliminary computations

memory 14 gb

molecule {
  0 1
  units bohr
 H    0.0000000000   -1.4190195589    0.9944761966
 O    0.0000000000   -0.0000000000   -0.1226087732
 H    0.0000000000    1.4190195589    0.9944761966
}

set {
  basis cc-pvtz
  reference rhf
  e_convergence 10
  d_convergence 10
  r_convergence 8
  maxiter 300
  freeze_core True
}

e, wfn = energy('ccsd(t)', return_wfn = True)
psi4.print_out('Giraffe The Energy is %.12f \n'%(e))
--------------------------------------------------------------------------

    Molecular point group: c2v

    Geometry (in Bohr), charge = 0, multiplicity = 1:

       Center              X                  Y                   Z               Mass
    ------------   -----------------  -----------------  -----------------  -----------------
         H            0.000000000000    -1.419019558900     0.992066546953     1.007825032230
         O            0.000000000000     0.000000000000    -0.125018422847    15.994914619570
         H           -0.000000000000     1.419019558900     0.992066546953     1.007825032230

  Charge       = 0
  Multiplicity = 1
  Basis Set: CC-PVTZ
    Blend: CC-PVTZ

    Orbital Energies [Eh]
    ---------------------

    Doubly Occupied:

       1A1   -20.554916     2A1    -1.347192     1B2    -0.708841
       3A1    -0.579878     1B1    -0.504912

  @RHF Final Energy:   -76.05719552426002

   => Energetics <=

    Nuclear Repulsion Energy =              9.2119046983591524
    One-Electron Energy =                -123.1467221268760568
    Two-Electron Energy =                  37.8776219042568982
    Total Energy =                        -76.0571955242600097

  Dipole Moment: [D]
     X:     0.0000      Y:     0.0000      Z:     2.0386     Total:     2.0386

      * MP2 total energy                      =  -76.318635521763326
      * CCSD total energy                     =  -76.324548970741304
      * CCSD(T) total energy                  =  -76.332189170352052
*** Psi4 exiting successfully. Buy a developer a beer!
