                               Psi4 1.4a2.dev629

  ==> Input File <==

--------------------------------------------------------------------------
# o-Benzyne preliminary computations

memory 14 gb

molecule {
  0 1
  units bohr
 C   -1.3750747982   -0.0242744684   -0.0015507093
 O    1.3060144383    0.1207011112   -0.0002120768
 H   -2.0778740221    1.9096134713   -0.0045174303
 H   -2.1093392054   -0.9836299495    1.6849736563
 H   -2.1086215995   -0.9750486968   -1.6788996714
 H    1.9411710269   -1.5774935878    0.0001978214
  no_reorient
  no_com
}

set {
  basis 6-31g*
  reference rhf
  e_convergence 10
  d_convergence 10
  r_convergence 8
  maxiter 300
  dft_spherical_points 1202
  dft_radial_points 99
  freeze_core True
}

#gradient('ccsd(t)')
gradient('b3lyp')
--------------------------------------------------------------------------

    Molecular point group: c1
  Charge       = 0
  Multiplicity = 1
  Basis Set: 6-31G*
    Blend: 6-31G*
  Basis Set: (6-31G* AUX)
    Blend: CC-PVDZ-JKFIT

    Orbital Energies [Eh]
    ---------------------

    Doubly Occupied:

       1A    -19.138433     2A    -10.223062     3A     -1.011280
       4A     -0.680172     5A     -0.502603     6A     -0.435611
       7A     -0.419720     8A     -0.330661     9A     -0.264416

  @DF-RKS Final Energy:  -115.71426988988534

   => Energetics <=

    Nuclear Repulsion Energy =             40.3078002200088505
    One-Electron Energy =                -237.0143485540393442
    Two-Electron Energy =                  93.5446962050347963
    DFT Exchange-Correlation Energy =     -12.5524177608896608
    Empirical Dispersion Energy =           0.0000000000000000
    VV10 Nonlocal Energy =                  0.0000000000000000
    Total Energy =                       -115.7142698898853439

  Dipole Moment: [D]
     X:    -0.8455      Y:    -1.4845      Z:    -0.0064     Total:     1.7084

    Molecular point group: c1

    Geometry (in Bohr), charge = 0, multiplicity = 1:

       Center              X                  Y                   Z               Mass
    ------------   -----------------  -----------------  -----------------  -----------------
         C           -1.375074798200    -0.024274468400    -0.001550709300    12.000000000000
         O            1.306014438300     0.120701111200    -0.000212076800    15.994914619570
         H           -2.077874022100     1.909613471300    -0.004517430300     1.007825032230
         H           -2.109339205400    -0.983629949500     1.684973656300     1.007825032230
         H           -2.108621599500    -0.975048696800    -1.678899671400     1.007825032230
         H            1.941171026900    -1.577493587800     0.000197821400     1.007825032230

  Basis Set: 6-31G*
    Blend: 6-31G*
  Basis Set: (6-31G* AUX)
    Blend: CC-PVDZ-JKFIT

  -Total Gradient:
     Atom            X                  Y                   Z
    ------   -----------------  -----------------  -----------------
       1       -0.005184925687    -0.000473372491    -0.002944067831
       2        0.003764257295    -0.008760254340     0.000120738441
       3        0.000799230506    -0.002845809172    -0.000356336995
       4        0.001596789263     0.000736271455    -0.001383925628
       5        0.002621807273     0.002947092456     0.004551488874
       6       -0.003597242150     0.008396137261     0.000012100465

*** Psi4 exiting successfully. Buy a developer a beer!
