                               Psi4 1.4a2.dev629

  ==> Input File <==

--------------------------------------------------------------------------
# o-Benzyne preliminary computations

memory 14 gb

molecule {
  0 1
  units bohr
 H   -0.0000000000   -1.4143086889    0.9949479985
 O    0.0000000000   -0.0049809420   -0.1274732469
 H    0.0000000000    1.4192896310    0.9988688684
}

set {
  basis 6-31g*
  reference rhf
  e_convergence 10
  d_convergence 10
  r_convergence 8
  maxiter 300
  freeze_core True
}

e, wfn = energy('b3lyp', return_wfn = True)
psi4.print_out('Giraffe The Energy is %.12f \n'%(e))
--------------------------------------------------------------------------

    Molecular point group: cs

    Geometry (in Bohr), charge = 0, multiplicity = 1:

       Center              X                  Y                   Z               Mass
    ------------   -----------------  -----------------  -----------------  -----------------
         H            1.410163909145    -0.996586212116     0.000000000000     1.007825032230
         O            0.000836162245     0.125835033284     0.000000000000    15.994914619570
         H           -1.423434410755    -1.000507082016     0.000000000000     1.007825032230

  Charge       = 0
  Multiplicity = 1
  Basis Set: 6-31G*
    Blend: 6-31G*
  Basis Set: (6-31G* AUX)
    Blend: CC-PVDZ-JKFIT

    Orbital Energies [Eh]
    ---------------------

    Doubly Occupied:

       1Ap   -19.136439     2Ap    -1.003448     3Ap    -0.520590
       4Ap    -0.374082     1App   -0.292217

  @DF-RKS Final Energy:   -76.40865681655849

   => Energetics <=

    Nuclear Repulsion Energy =              9.1989484785473863
    One-Electron Energy =                -123.1316772598865867
    Two-Electron Energy =                  45.0879760556134741
    DFT Exchange-Correlation Energy =      -7.5639040908327830
    Empirical Dispersion Energy =           0.0000000000000000
    VV10 Nonlocal Energy =                  0.0000000000000000
    Total Energy =                        -76.4086568165585049

  Dipole Moment: [D]
     X:    -0.0067      Y:    -2.0996      Z:     0.0000     Total:     2.0996

*** Psi4 exiting successfully. Buy a developer a beer!
