                               Psi4 1.4a2.dev629

  ==> Input File <==

--------------------------------------------------------------------------
# o-Benzyne preliminary computations

memory 14 gb

molecule {
  0 1
  units bohr
 C   -1.3777245381   -0.0250947755   -0.0000064016
 O    1.3063309321    0.1209683296    0.0000025559
 H   -2.0770458672    1.9098930026   -0.0000776256
 H   -2.1082216232   -0.9791239701    1.6822098672
 H   -2.1082151232   -0.9792569711   -1.6821350173
 H    1.9411520596   -1.5775177354   -0.0000017887
  no_reorient
  no_com
}

set {
  basis 6-31g*
  reference rhf
  e_convergence 10
  d_convergence 10
  r_convergence 8
  maxiter 300
  dft_spherical_points 1202
  dft_radial_points 99
  freeze_core True
}

#gradient('ccsd(t)')
gradient('b3lyp')
--------------------------------------------------------------------------

    Molecular point group: c1
  Charge       = 0
  Multiplicity = 1
  Basis Set: 6-31G*
    Blend: 6-31G*
  Basis Set: (6-31G* AUX)
    Blend: CC-PVDZ-JKFIT

    Orbital Energies [Eh]
    ---------------------

    Doubly Occupied:

       1A    -19.138260     2A    -10.222993     3A     -1.010692
       4A     -0.680258     5A     -0.502213     6A     -0.435795
       7A     -0.419443     8A     -0.330705     9A     -0.264376

  @DF-RKS Final Energy:  -115.71426512874113

   => Energetics <=

    Nuclear Repulsion Energy =             40.2911951727149216
    One-Electron Energy =                -236.9836098264341047
    Two-Electron Energy =                  93.5304923227190841
    DFT Exchange-Correlation Energy =     -12.5523427977410211
    Empirical Dispersion Energy =           0.0000000000000000
    VV10 Nonlocal Energy =                  0.0000000000000000
    Total Energy =                       -115.7142651287411326

  Dipole Moment: [D]
     X:    -0.8521      Y:    -1.4855      Z:    -0.0000     Total:     1.7125

    Molecular point group: c1

    Geometry (in Bohr), charge = 0, multiplicity = 1:

       Center              X                  Y                   Z               Mass
    ------------   -----------------  -----------------  -----------------  -----------------
         C           -1.377724538100    -0.025094775500    -0.000006401600    12.000000000000
         O            1.306330932100     0.120968329600     0.000002555900    15.994914619570
         H           -2.077045867200     1.909893002600    -0.000077625600     1.007825032230
         H           -2.108221623200    -0.979123970100     1.682209867200     1.007825032230
         H           -2.108215123200    -0.979256971100    -1.682135017300     1.007825032230
         H            1.941152059600    -1.577517735400    -0.000001788700     1.007825032230

  Basis Set: 6-31G*
    Blend: 6-31G*
  Basis Set: (6-31G* AUX)
    Blend: CC-PVDZ-JKFIT

  -Total Gradient:
     Atom            X                  Y                   Z
    ------   -----------------  -----------------  -----------------
       1       -0.006626998559    -0.001021677523    -0.000004383856
       2        0.004451322750    -0.008606708613     0.000000820290
       3        0.000989922049    -0.002800119866     0.000000429985
       4        0.002378260408     0.002040823518    -0.003207288902
       5        0.002379085065     0.002042415280     0.003210634518
       6       -0.003571674824     0.008345331117    -0.000000212038

*** Psi4 exiting successfully. Buy a developer a beer!
