                               Psi4 1.4a2.dev629

  ==> Input File <==

--------------------------------------------------------------------------
# o-Benzyne preliminary computations

memory 14 gb

molecule {
  0 1
  units bohr
 H   -0.0000000000   -1.4302493255    0.9973700721
 O    0.0000000000    0.0000089992   -0.1283894403
 H    0.0000000000    1.4302403263    0.9973629882
}

set {
  basis cc-pvtz
  reference rhf
  e_convergence 10
  d_convergence 10
  r_convergence 8
  maxiter 300
  freeze_core True
}

e, wfn = energy('ccsd(t)', return_wfn = True)
psi4.print_out('Giraffe The Energy is %.12f \n'%(e))
--------------------------------------------------------------------------

    Molecular point group: cs

    Geometry (in Bohr), charge = 0, multiplicity = 1:

       Center              X                  Y                   Z               Mass
    ------------   -----------------  -----------------  -----------------  -----------------
         H            1.430256813984    -0.999770675614     0.000000000000     1.007825032230
         O           -0.000001510716     0.125988836786     0.000000000000    15.994914619570
         H           -1.430232837816    -0.999763591714     0.000000000000     1.007825032230

  Charge       = 0
  Multiplicity = 1
  Basis Set: CC-PVTZ
    Blend: CC-PVTZ

    Orbital Energies [Eh]
    ---------------------

    Doubly Occupied:

       1Ap   -20.556250     2Ap    -1.343307     3Ap    -0.704782
       4Ap    -0.578430     1App   -0.504306

  @RHF Final Energy:   -76.05664163006070

   => Energetics <=

    Nuclear Repulsion Energy =              9.1401003445818745
    One-Electron Energy =                -123.0193352461235463
    Two-Electron Energy =                  37.8225932714809687
    Total Energy =                        -76.0566416300607102

  Dipole Moment: [D]
     X:     0.0000      Y:    -2.0445      Z:     0.0000     Total:     2.0445

      * MP2 total energy                      =  -76.318624663407164
      * CCSD total energy                     =  -76.324487223151209
      * CCSD(T) total energy                  =  -76.332189631179389
*** Psi4 exiting successfully. Buy a developer a beer!
