                               Psi4 1.4a2.dev629

  ==> Input File <==

--------------------------------------------------------------------------
# o-Benzyne preliminary computations

memory 14 gb

molecule {
  0 1
  units bohr
 C   -1.3750701387   -0.0242787732   -0.0008234138
 O    1.3060182234    0.1207001624    0.0015468059
 H   -2.0778769575    1.9096089335   -0.0010055774
 H   -2.1023284342   -0.9805721464    1.6798727630
 H   -2.1156415492   -0.9780980472   -1.6839816304
 H    1.9411746963   -1.5774922492    0.0043826427
  no_reorient
  no_com
}

set {
  basis 6-31g*
  reference rhf
  e_convergence 10
  d_convergence 10
  r_convergence 8
  maxiter 300
  dft_spherical_points 1202
  dft_radial_points 99
  freeze_core True
}

#gradient('ccsd(t)')
gradient('b3lyp')
--------------------------------------------------------------------------

    Molecular point group: c1
  Charge       = 0
  Multiplicity = 1
  Basis Set: 6-31G*
    Blend: 6-31G*
  Basis Set: (6-31G* AUX)
    Blend: CC-PVDZ-JKFIT

    Orbital Energies [Eh]
    ---------------------

    Doubly Occupied:

       1A    -19.138433     2A    -10.223062     3A     -1.011280
       4A     -0.680168     5A     -0.502600     6A     -0.435623
       7A     -0.419712     8A     -0.330661     9A     -0.264416

  @DF-RKS Final Energy:  -115.71427702039499

   => Energetics <=

    Nuclear Repulsion Energy =             40.3077727613112202
    One-Electron Energy =                -237.0143167026770072
    Two-Electron Energy =                  93.5446816823202738
    DFT Exchange-Correlation Energy =     -12.5524147613494641
    Empirical Dispersion Energy =           0.0000000000000000
    VV10 Nonlocal Energy =                  0.0000000000000000
    Total Energy =                       -115.7142770203949880

  Dipole Moment: [D]
     X:    -0.8455      Y:    -1.4845      Z:     0.0039     Total:     1.7084

    Molecular point group: c1

    Geometry (in Bohr), charge = 0, multiplicity = 1:

       Center              X                  Y                   Z               Mass
    ------------   -----------------  -----------------  -----------------  -----------------
         C           -1.375070138700    -0.024278773200    -0.000823413800    12.000000000000
         O            1.306018223400     0.120700162400     0.001546805900    15.994914619570
         H           -2.077876957500     1.909608933500    -0.001005577400     1.007825032230
         H           -2.102328434200    -0.980572146400     1.679872763000     1.007825032230
         H           -2.115641549200    -0.978098047200    -1.683981630400     1.007825032230
         H            1.941174696300    -1.577492249200     0.004382642700     1.007825032230

  Basis Set: 6-31G*
    Blend: 6-31G*
  Basis Set: (6-31G* AUX)
    Blend: CC-PVDZ-JKFIT

  -Total Gradient:
     Atom            X                  Y                   Z
    ------   -----------------  -----------------  -----------------
       1       -0.005166792858    -0.000464093802     0.001010885473
       2        0.003761084859    -0.008761185512     0.000471278127
       3        0.000798719029    -0.002844705097    -0.000190700671
       4        0.002791630668     0.002110944699    -0.003603312491
       5        0.001412547209     0.001563019279     0.002312251177
       6       -0.003597273898     0.008396085349    -0.000000401556

*** Psi4 exiting successfully. Buy a developer a beer!
