                               Psi4 1.4a2.dev629

  ==> Input File <==

--------------------------------------------------------------------------
# o-Benzyne preliminary computations

memory 30 gb

molecule P1P2_CN_Singlet
{
  0 1
  H         -1.8897259886          1.4550890112          0.0000000000
  O          0.0000000000          0.0000000000          0.0000000000
  H          1.8897259886          1.4550890112          0.0000000000
  no_reorient
  units bohr
}

set {
  reference rhf
  basis cc-pvdz
  e_convergence 9
  d_convergence 10
  maxiter 300
  normal_modes_write true
}

opt('scf')
freq('scf')
--------------------------------------------------------------------------

    Molecular point group: c2v
  Charge       = 0
  Multiplicity = 1
  Basis Set: CC-PVDZ
    Blend: CC-PVDZ
  Basis Set: (CC-PVDZ AUX)
    Blend: CC-PVDZ-JKFIT
  @DF-RHF Final Energy:   -75.91127191395792
    Total Energy =                        -75.9112719139579326
    Molecular point group: c2v
  Basis Set: CC-PVDZ
    Blend: CC-PVDZ
  Basis Set: (CC-PVDZ AUX)
    Blend: CC-PVDZ-JKFIT
  Basis Set: CC-PVDZ
    Blend: CC-PVDZ
  Basis Set: (CC-PVDZ AUX)
    Blend: CC-PVDZ-JKFIT
  @DF-RHF Final Energy:   -75.99935556311060
    Total Energy =                        -75.9993555631105977
  Basis Set: CC-PVDZ
    Blend: CC-PVDZ
  Basis Set: (CC-PVDZ AUX)
    Blend: CC-PVDZ-JKFIT
  Basis Set: CC-PVDZ
    Blend: CC-PVDZ
  @DF-RHF Final Energy:   -75.98399765134127
    Total Energy =                        -75.9839976513412836
  @DF-RHF Final Energy:   -76.02570899216062
    Total Energy =                        -76.0257089921606166
  @DF-RHF Final Energy:   -76.02660296056294
    Total Energy =                        -76.0266029605629399
  @DF-RHF Final Energy:   -76.02698209024052
    Total Energy =                        -76.0269820902405229
  @DF-RHF Final Energy:   -76.02703237780855
    Total Energy =                        -76.0270323778085526
  @DF-RHF Final Energy:   -76.02703278282348
    Total Energy =                        -76.0270327828234826
  **** Optimization is complete! (in 8 steps) ****
    Final optimized geometry and variables:
  Basis Set: CC-PVDZ
    Blend: CC-PVDZ
  Basis Set: (CC-PVDZ AUX)
    Blend: CC-PVDZ-JKFIT
  @DF-RHF Final Energy:   -76.02703278282344
    Total Energy =                        -76.0270327828234542
  Basis Set: CC-PVDZ
    Blend: CC-PVDZ
  Basis Set: (CC-PVDZ AUX)
    Blend: CC-PVDZ-JKFIT

  -Total Gradient:
     Atom            X                  Y                   Z
    ------   -----------------  -----------------  -----------------
       1       -0.000018845672     0.000013948388     0.000000000000
       2        0.000000000000    -0.000027896777     0.000000000000
       3        0.000018845672     0.000013948388     0.000000000000

    Molecular point group: c2v
  Charge       = 0
  Multiplicity = 1
  Basis Set: CC-PVDZ
    Blend: CC-PVDZ
  Basis Set: (CC-PVDZ AUX)
    Blend: CC-PVDZ-JKFIT

    Orbital Energies [Eh]
    ---------------------

    Doubly Occupied:

       1A1   -20.548435     2A1    -1.342264     1B1    -0.705432
       3A1    -0.568384     1B2    -0.493915

  @DF-RHF Final Energy:   -76.02703278282348

   => Energetics <=

    Nuclear Repulsion Energy =              9.3006394375039889
    One-Electron Energy =                -123.3384854484001210
    Two-Electron Energy =                  38.0108132280726565
    Total Energy =                        -76.0270327828234826

  Dipole Moment: [D]
     X:     0.0000      Y:     2.0445      Z:     0.0000     Total:     2.0445

    Molecular point group: c2v

    Geometry (in Bohr), charge = 0, multiplicity = 1:

       Center              X                  Y                   Z               Mass
    ------------   -----------------  -----------------  -----------------  -----------------
         H           -1.415086988583     0.970965907857     0.000000000000     1.007825032230
         O            0.000000000000    -0.122359358666     0.000000000000    15.994914619570
         H            1.415086988583     0.970965907857     0.000000000000     1.007825032230

  Basis Set: CC-PVDZ
    Blend: CC-PVDZ
  Basis Set: (CC-PVDZ AUX)
    Blend: CC-PVDZ-JKFIT
  Basis Set: (CC-PVDZ AUX)
    Blend: CC-PVDZ-JKFIT

  Vibration                       7                   8                   9
  Freq [cm^-1]                1776.2490           4113.3828           4211.7701
  Irrep                           A1                  A1                  B1
  Reduced mass [u]              1.0817              1.0461              1.0820
  Force const [mDyne/A]         2.0108             10.4281             11.3083

  IR activ [km/mol]            80.8268             21.1731             60.5609

  ==> Thermochemistry Components <==

  Entropy, S
    Electronic S            0.000 [cal/(mol K)]        0.000 [J/(mol K)]       0.00000000 [mEh/K] (multiplicity = 1)
    Translational S        34.608 [cal/(mol K)]      144.801 [J/(mol K)]       0.05515177 [mEh/K] (mol. weight = 18.0106 [u], P = 101325.00 [Pa])
    Rotational S           10.377 [cal/(mol K)]       43.416 [J/(mol K)]       0.01653637 [mEh/K] (symmetry no. = 2)
    Vibrational S           0.004 [cal/(mol K)]        0.015 [J/(mol K)]       0.00000574 [mEh/K]
  Total S                  44.989 [cal/(mol K)]      188.232 [J/(mol K)]       0.07169388 [mEh/K]
  Correction S              0.000 [cal/(mol K)]        0.000 [J/(mol K)]       0.00000000 [mEh/K]

  Constant volume heat capacity, Cv
    Electronic Cv           0.000 [cal/(mol K)]        0.000 [J/(mol K)]       0.00000000 [mEh/K]
    Translational Cv        2.981 [cal/(mol K)]       12.472 [J/(mol K)]       0.00475022 [mEh/K]
    Rotational Cv           2.981 [cal/(mol K)]       12.472 [J/(mol K)]       0.00475022 [mEh/K]
    Vibrational Cv          0.028 [cal/(mol K)]        0.116 [J/(mol K)]       0.00004409 [mEh/K]
  Total Cv                  5.989 [cal/(mol K)]       25.059 [J/(mol K)]       0.00954452 [mEh/K]
  Correction Cv             0.000 [cal/(mol K)]        0.000 [J/(mol K)]       0.00000000 [mEh/K]

  Constant pressure heat capacity, Cp
    Electronic Cp           0.000 [cal/(mol K)]        0.000 [J/(mol K)]       0.00000000 [mEh/K]
    Translational Cp        4.968 [cal/(mol K)]       20.786 [J/(mol K)]       0.00791703 [mEh/K]
    Rotational Cp           2.981 [cal/(mol K)]       12.472 [J/(mol K)]       0.00475022 [mEh/K]
    Vibrational Cp          0.028 [cal/(mol K)]        0.116 [J/(mol K)]       0.00004409 [mEh/K]
  Total Cp                  7.976 [cal/(mol K)]       33.374 [J/(mol K)]       0.01271133 [mEh/K]
  Correction Cp             0.000 [cal/(mol K)]        0.000 [J/(mol K)]       0.00000000 [mEh/K]

  ==> Thermochemistry Energy Analysis <==

  Raw electronic energy, E0
  Total E0, Electronic energy at well bottom at 0 [K]                  -76.02703278 [Eh]

  Zero-point energy, ZPE_vib = Sum_i nu_i / 2
    Electronic ZPE          0.000 [kcal/mol]        0.000 [kJ/mol]       0.00000000 [Eh]
    Translational ZPE       0.000 [kcal/mol]        0.000 [kJ/mol]       0.00000000 [Eh]
    Rotational ZPE          0.000 [kcal/mol]        0.000 [kJ/mol]       0.00000000 [Eh]
    Vibrational ZPE        14.441 [kcal/mol]       60.420 [kJ/mol]       0.02301269 [Eh]        5050.701 [cm^-1]
  Correction ZPE           14.441 [kcal/mol]       60.420 [kJ/mol]       0.02301269 [Eh]        5050.701 [cm^-1]
  Total ZPE, Electronic energy at 0 [K]                                -76.00402010 [Eh]

  Thermal Energy, E (includes ZPE)
    Electronic E            0.000 [kcal/mol]        0.000 [kJ/mol]       0.00000000 [Eh]
    Translational E         0.889 [kcal/mol]        3.718 [kJ/mol]       0.00141628 [Eh]
    Rotational E            0.889 [kcal/mol]        3.718 [kJ/mol]       0.00141628 [Eh]
    Vibrational E          14.442 [kcal/mol]       60.424 [kJ/mol]       0.02301422 [Eh]
  Correction E             16.219 [kcal/mol]       67.861 [kJ/mol]       0.02584677 [Eh]
  Total E, Electronic energy at  298.15 [K]                            -76.00118601 [Eh]

  Enthalpy, H_trans = E_trans + k_B * T
    Electronic H            0.000 [kcal/mol]        0.000 [kJ/mol]       0.00000000 [Eh]
    Translational H         1.481 [kcal/mol]        6.197 [kJ/mol]       0.00236046 [Eh]
    Rotational H            0.889 [kcal/mol]        3.718 [kJ/mol]       0.00141628 [Eh]
    Vibrational H          14.442 [kcal/mol]       60.424 [kJ/mol]       0.02301422 [Eh]
  Correction H             16.812 [kcal/mol]       70.340 [kJ/mol]       0.02679096 [Eh]
  Total H, Enthalpy at  298.15 [K]                                     -76.00024182 [Eh]

  Gibbs free energy, G = H - T * S
    Electronic G            0.000 [kcal/mol]        0.000 [kJ/mol]       0.00000000 [Eh]
    Translational G        -8.837 [kcal/mol]      -36.975 [kJ/mol]      -0.01408304 [Eh]
    Rotational G           -2.205 [kcal/mol]       -9.226 [kJ/mol]      -0.00351404 [Eh]
    Vibrational G          14.441 [kcal/mol]       60.419 [kJ/mol]       0.02301251 [Eh]
  Correction G              3.398 [kcal/mol]       14.218 [kJ/mol]       0.00541543 [Eh]
  Total G, Free enthalpy at  298.15 [K]                                -76.02161736 [Eh]

*** Psi4 exiting successfully. Buy a developer a beer!
