                               Psi4 1.4a2.dev629

  ==> Input File <==

--------------------------------------------------------------------------
# o-Benzyne preliminary computations

memory 14 gb

molecule {
  0 1
  units bohr
 H   -0.0000000000   -1.4177461021    0.9995150687
 O    0.0000000000    0.0000000000   -0.1326865174
 H    0.0000000000    1.4177461021    0.9995150687
}

set {
  basis 6-31g*
  reference rhf
  e_convergence 10
  d_convergence 10
  r_convergence 8
  maxiter 300
  freeze_core True
}

e, wfn = energy('b3lyp', return_wfn = True)
psi4.print_out('Giraffe The Energy is %.12f \n'%(e))
--------------------------------------------------------------------------

    Molecular point group: c2v

    Geometry (in Bohr), charge = 0, multiplicity = 1:

       Center              X                  Y                   Z               Mass
    ------------   -----------------  -----------------  -----------------  -----------------
         H            0.000000000000    -1.417746102100     1.005491389055     1.007825032230
         O            0.000000000000     0.000000000000    -0.126710197045    15.994914619570
         H           -0.000000000000     1.417746102100     1.005491389055     1.007825032230

  Charge       = 0
  Multiplicity = 1
  Basis Set: 6-31G*
    Blend: 6-31G*
  Basis Set: (6-31G* AUX)
    Blend: CC-PVDZ-JKFIT

    Orbital Energies [Eh]
    ---------------------

    Doubly Occupied:

       1A1   -19.137138     2A1    -1.002437     1B2    -0.518858
       3A1    -0.374599     1B1    -0.292114

  @DF-RKS Final Energy:   -76.40878157616547

   => Energetics <=

    Nuclear Repulsion Energy =              9.1712328190724897
    One-Electron Energy =                -123.0813130954868768
    Two-Electron Energy =                  45.0629315021896204
    DFT Exchange-Correlation Energy =      -7.5616328019406867
    Empirical Dispersion Energy =           0.0000000000000000
    VV10 Nonlocal Energy =                  0.0000000000000000
    Total Energy =                        -76.4087815761654525

  Dipole Moment: [D]
     X:     0.0000      Y:     0.0000      Z:     2.1059     Total:     2.1059

*** Psi4 exiting successfully. Buy a developer a beer!
