                               Psi4 1.4a2.dev629

  ==> Input File <==

--------------------------------------------------------------------------
# o-Benzyne preliminary computations

memory 14 gb

molecule {
  0 1
  units bohr
 C   -1.3750741442   -0.0242780757    0.0025908243
 O    1.3060181298    0.1207018173    0.0010627171
 H   -2.0778737925    1.9096120953    0.0022210032
 H   -2.1064494322   -0.9763420908    1.6786329099
 H   -2.1115205874   -0.9823330891   -1.6852405205
 H    1.9411756664   -1.5774927770    0.0007246560
}

set {
  basis cc-pvtz
  reference rhf
  e_convergence 10
  d_convergence 10
  r_convergence 8
  maxiter 300
  freeze_core True
}

e, wfn = energy('ccsd(t)', return_wfn = True)
psi4.print_out('Giraffe The Energy is %.12f \n'%(e))
--------------------------------------------------------------------------

    Molecular point group: c1

    Geometry (in Bohr), charge = 0, multiplicity = 1:

       Center              X                  Y                   Z               Mass
    ------------   -----------------  -----------------  -----------------  -----------------
         C           -1.375074618283    -0.024277908340     0.001204542626    12.000000000000
         O            1.306017655717     0.120701984660    -0.000323564574    15.994914619570
         H           -2.077874266583     1.909612262660     0.000834721526     1.007825032230
         H           -2.106449906283    -0.976341923440     1.677246628226     1.007825032230
         H           -2.111521061483    -0.982332921740    -1.686626802174     1.007825032230
         H            1.941175192317    -1.577492609640    -0.000661625674     1.007825032230

  Charge       = 0
  Multiplicity = 1
  Basis Set: CC-PVTZ
    Blend: CC-PVTZ

    Orbital Energies [Eh]
    ---------------------

    Doubly Occupied:

       1A    -20.552621     2A    -11.269754     3A     -1.354103
       4A     -0.923083     5A     -0.687880     6A     -0.617655
       7A     -0.590047     8A     -0.502059     9A     -0.449143

  @RHF Final Energy:  -115.08909824776650

   => Energetics <=

    Nuclear Repulsion Energy =             40.3078001470173675
    One-Electron Energy =                -236.9011049021120812
    Two-Electron Energy =                  81.5042065073282203
    Total Energy =                       -115.0890982477665005

  Dipole Moment: [D]
     X:    -0.9842      Y:    -1.4950      Z:     0.0071     Total:     1.7899

      * MP2 total energy                      = -115.517432672662494
      * CCSD total energy                     = -115.535980193505324
      * CCSD(T) total energy                  = -115.550770423304712
*** Psi4 exiting successfully. Buy a developer a beer!
