                               Psi4 1.4a2.dev629

  ==> Input File <==

--------------------------------------------------------------------------
# o-Benzyne preliminary computations

memory 14 gb

molecule {
  0 1
  units bohr
 H    0.0000000000   -1.4221446069    0.9939633569
 O    0.0000000000   -0.0049723254   -0.1254971809
 H    0.0000000000    1.4271169322    0.9978774440
}

set {
  basis 6-31g*
  reference rhf
  e_convergence 10
  d_convergence 10
  r_convergence 8
  maxiter 300
  freeze_core True
}

e, wfn = energy('b3lyp', return_wfn = True)
psi4.print_out('Giraffe The Energy is %.12f \n'%(e))
--------------------------------------------------------------------------

    Molecular point group: cs

    Geometry (in Bohr), charge = 0, multiplicity = 1:

       Center              X                  Y                   Z               Mass
    ------------   -----------------  -----------------  -----------------  -----------------
         H            1.418006997245    -0.993957231280     0.000000000000     1.007825032230
         O            0.000834715745     0.125503306520     0.000000000000    15.994914619570
         H           -1.431254541855    -0.997871318380     0.000000000000     1.007825032230

  Charge       = 0
  Multiplicity = 1
  Basis Set: 6-31G*
    Blend: 6-31G*
  Basis Set: (6-31G* AUX)
    Blend: CC-PVDZ-JKFIT

    Orbital Energies [Eh]
    ---------------------

    Doubly Occupied:

       1Ap   -19.136599     2Ap    -1.002020     3Ap    -0.520517
       4Ap    -0.372989     1App   -0.291893

  @DF-RKS Final Energy:   -76.40876539158315

   => Energetics <=

    Nuclear Repulsion Energy =              9.1759977523739096
    One-Electron Energy =                -123.0926939570890397
    Two-Electron Energy =                  45.0701146349126773
    DFT Exchange-Correlation Energy =      -7.5621838217806907
    Empirical Dispersion Energy =           0.0000000000000000
    VV10 Nonlocal Energy =                  0.0000000000000000
    Total Energy =                        -76.4087653915831453

  Dipole Moment: [D]
     X:    -0.0067      Y:    -2.0934      Z:     0.0000     Total:     2.0934

*** Psi4 exiting successfully. Buy a developer a beer!
