                               Psi4 1.4a2.dev629

  ==> Input File <==

--------------------------------------------------------------------------
# o-Benzyne preliminary computations

memory 14 gb

molecule {
  0 1
  units bohr
 C   -1.3747114734   -0.0266847004    0.0000006138
 O    1.3061959037    0.1197522015    0.0000006094
 H   -2.0809835053    1.9161319823   -0.0000808819
 H   -2.1079788350   -0.9803648300    1.6804772792
 H   -2.1079724816   -0.9804949725   -1.6804047769
 H    1.9417262317   -1.5784718009   -0.0000012537
}

set {
  basis cc-pvtz
  reference rhf
  e_convergence 10
  d_convergence 10
  r_convergence 8
  maxiter 300
  freeze_core True
}

e, wfn = energy('ccsd(t)', return_wfn = True)
psi4.print_out('Giraffe The Energy is %.12f \n'%(e))
--------------------------------------------------------------------------

    Molecular point group: c1

    Geometry (in Bohr), charge = 0, multiplicity = 1:

       Center              X                  Y                   Z               Mass
    ------------   -----------------  -----------------  -----------------  -----------------
         C           -1.374919616560    -0.025414135737     0.000000382608    12.000000000000
         O            1.305987760540     0.121022766163     0.000000378208    15.994914619570
         H           -2.081191648460     1.917402546963    -0.000081113092     1.007825032230
         H           -2.108186978160    -0.979094265337     1.680477048008     1.007825032230
         H           -2.108180624760    -0.979224407837    -1.680405008092     1.007825032230
         H            1.941518088540    -1.577201236237    -0.000001484892     1.007825032230

  Charge       = 0
  Multiplicity = 1
  Basis Set: CC-PVTZ
    Blend: CC-PVTZ

    Orbital Energies [Eh]
    ---------------------

    Doubly Occupied:

       1A    -20.552687     2A    -11.270096     3A     -1.354151
       4A     -0.922695     5A     -0.687949     6A     -0.617988
       7A     -0.589380     8A     -0.501625     9A     -0.449328

  @RHF Final Energy:  -115.08906014972715

   => Energetics <=

    Nuclear Repulsion Energy =             40.2974049537690107
    One-Electron Energy =                -236.8811335437341086
    Two-Electron Energy =                  81.4946684402379447
    Total Energy =                       -115.0890601497271462

  Dipole Moment: [D]
     X:    -0.9826      Y:    -1.5004      Z:    -0.0000     Total:     1.7935

      * MP2 total energy                      = -115.517419755799267
      * CCSD total energy                     = -115.535973742089709
      * CCSD(T) total energy                  = -115.550769749702184
*** Psi4 exiting successfully. Buy a developer a beer!
