                               Psi4 1.4a2.dev629

  ==> Input File <==

--------------------------------------------------------------------------
# o-Benzyne preliminary computations

memory 14 gb

molecule {
  0 1
  units bohr
 C   -1.3763624860   -0.0216795959    0.0000001353
 O    1.3123243731    0.1215669397    0.0000005266
 H   -2.0838358178    1.9103427864   -0.0000794110
 H   -2.1062773762   -0.9796745060    1.6816697733
 H   -2.1062690077   -0.9798068480   -1.6815975796
 H    1.9366961547   -1.5808808962   -0.0000018546
}

set {
  basis cc-pvtz
  reference rhf
  e_convergence 10
  d_convergence 10
  r_convergence 8
  maxiter 300
  freeze_core True
}

e, wfn = energy('ccsd(t)', return_wfn = True)
psi4.print_out('Giraffe The Energy is %.12f \n'%(e))
--------------------------------------------------------------------------

    Molecular point group: c1

    Geometry (in Bohr), charge = 0, multiplicity = 1:

       Center              X                  Y                   Z               Mass
    ------------   -----------------  -----------------  -----------------  -----------------
         C           -1.378871859609    -0.022976135374     0.000000107085    12.000000000000
         O            1.309814999491     0.120270400226     0.000000498385    15.994914619570
         H           -2.086345191409     1.909046246926    -0.000079439215     1.007825032230
         H           -2.108786749809    -0.980971045474     1.681669745085     1.007825032230
         H           -2.108778381309    -0.981103387474    -1.681597607815     1.007825032230
         H            1.934186781091    -1.582177435674    -0.000001882815     1.007825032230

  Charge       = 0
  Multiplicity = 1
  Basis Set: CC-PVTZ
    Blend: CC-PVTZ

    Orbital Energies [Eh]
    ---------------------

    Doubly Occupied:

       1A    -20.552673     2A    -11.270140     3A     -1.352842
       4A     -0.923133     5A     -0.686920     6A     -0.617193
       7A     -0.589251     8A     -0.502753     9A     -0.449465

  @RHF Final Energy:  -115.08896841568890

   => Energetics <=

    Nuclear Repulsion Energy =             40.2497143491261369
    One-Electron Energy =                -236.7886263431597627
    Two-Electron Energy =                  81.4499435783447439
    Total Energy =                       -115.0889684156888961

  Dipole Moment: [D]
     X:    -1.0078      Y:    -1.4961      Z:    -0.0000     Total:     1.8039

      * MP2 total energy                      = -115.517424314869018
      * CCSD total energy                     = -115.535959285264951
      * CCSD(T) total energy                  = -115.550774573540266
*** Psi4 exiting successfully. Buy a developer a beer!
