                               Psi4 1.4a2.dev629

  ==> Input File <==

--------------------------------------------------------------------------
# o-Benzyne preliminary computations

memory 14 gb

molecule {
  0 1
  units bohr
 C   -1.3748525750   -0.0257921638    0.0000003288
 O    1.3049789101    0.1203305944    0.0000003401
 H   -2.0783178941    1.9156475409   -0.0000801636
 H   -2.1084094290   -0.9813366304    1.6780911434
 H   -2.1084024356   -0.9814675218   -1.6780187481
 H    1.9412792636   -1.5775139393   -0.0000013106
  no_reorient
  no_com
}

set {
  basis 6-31g*
  reference rhf
  e_convergence 10
  d_convergence 10
  r_convergence 8
  maxiter 300
  dft_spherical_points 1202
  dft_radial_points 99
  freeze_core True
}

#gradient('ccsd(t)')
gradient('b3lyp')
--------------------------------------------------------------------------

    Molecular point group: c1
  Charge       = 0
  Multiplicity = 1
  Basis Set: 6-31G*
    Blend: 6-31G*
  Basis Set: (6-31G* AUX)
    Blend: CC-PVDZ-JKFIT

    Orbital Energies [Eh]
    ---------------------

    Doubly Occupied:

       1A    -19.138431     2A    -10.223074     3A     -1.011468
       4A     -0.680032     5A     -0.502963     6A     -0.435789
       7A     -0.419300     8A     -0.330628     9A     -0.264420

  @DF-RKS Final Energy:  -115.71427015280827

   => Energetics <=

    Nuclear Repulsion Energy =             40.3151421965326620
    One-Electron Energy =                -237.0287190819863383
    Two-Electron Energy =                  93.5517583423739296
    DFT Exchange-Correlation Energy =     -12.5524516097285286
    Empirical Dispersion Energy =           0.0000000000000000
    VV10 Nonlocal Energy =                  0.0000000000000000
    Total Energy =                       -115.7142701528082682

  Dipole Moment: [D]
     X:    -0.8427      Y:    -1.4891      Z:    -0.0000     Total:     1.7111

    Molecular point group: c1

    Geometry (in Bohr), charge = 0, multiplicity = 1:

       Center              X                  Y                   Z               Mass
    ------------   -----------------  -----------------  -----------------  -----------------
         C           -1.374852575000    -0.025792163800     0.000000328800    12.000000000000
         O            1.304978910100     0.120330594400     0.000000340100    15.994914619570
         H           -2.078317894100     1.915647540900    -0.000080163600     1.007825032230
         H           -2.108409429000    -0.981336630400     1.678091143400     1.007825032230
         H           -2.108402435600    -0.981467521800    -1.678018748100     1.007825032230
         H            1.941279263600    -1.577513939300    -0.000001310600     1.007825032230

  Basis Set: 6-31G*
    Blend: 6-31G*
  Basis Set: (6-31G* AUX)
    Blend: CC-PVDZ-JKFIT

  -Total Gradient:
     Atom            X                  Y                   Z
    ------   -----------------  -----------------  -----------------
       1       -0.004695118349    -0.003543353698     0.000000291626
       2        0.003328123510    -0.008641417718     0.000000257753
       3        0.000152196321    -0.000343910673    -0.000000189077
       4        0.002418123575     0.002080413789    -0.003976185926
       5        0.002418088020     0.002080734285     0.003976045141
       6       -0.003621500328     0.008367598581    -0.000000219521

*** Psi4 exiting successfully. Buy a developer a beer!
