                               Psi4 1.4a2.dev629

  ==> Input File <==

--------------------------------------------------------------------------
# o-Benzyne preliminary computations

memory 14 gb

molecule {
  0 1
  units bohr
 H   -0.0000000000   -1.4324558220    0.9949211737
 O    0.0000000000   -0.0000000000   -0.1234987273
 H    0.0000000000    1.4324558220    0.9949211737
}

set {
  basis cc-pvdz
  reference rhf
  e_convergence 10
  d_convergence 10
  r_convergence 8
  maxiter 300
  freeze_core True
}

e, wfn = energy('ccsd(t)', return_wfn = True)
psi4.print_out('Giraffe The Energy is %.12f \n'%(e))
--------------------------------------------------------------------------

    Molecular point group: c2v

    Geometry (in Bohr), charge = 0, multiplicity = 1:

       Center              X                  Y                   Z               Mass
    ------------   -----------------  -----------------  -----------------  -----------------
         H            0.000000000000    -1.432455822000     0.993252079497     1.007825032230
         O            0.000000000000     0.000000000000    -0.125167821503    15.994914619570
         H           -0.000000000000     1.432455822000     0.993252079497     1.007825032230

  Charge       = 0
  Multiplicity = 1
  Basis Set: CC-PVDZ
    Blend: CC-PVDZ

    Orbital Energies [Eh]
    ---------------------

    Doubly Occupied:

       1A1   -20.551475     2A1    -1.334815     1B2    -0.696014
       3A1    -0.566724     1B1    -0.493003

  @RHF Final Energy:   -76.02655488802338

   => Energetics <=

    Nuclear Repulsion Energy =              9.1530364507578454
    One-Electron Energy =                -123.0751215202629396
    Two-Electron Energy =                  37.8955301814817105
    Total Energy =                        -76.0265548880233837

  Dipole Moment: [D]
     X:     0.0000      Y:     0.0000      Z:     2.0678     Total:     2.0678

      * MP2 total energy                      =  -76.228545128755243
      * CCSD total energy                     =  -76.238109227562788
      * CCSD(T) total energy                  =  -76.241168526440674
*** Psi4 exiting successfully. Buy a developer a beer!
