                               Psi4 1.4a2.dev629

  ==> Input File <==

--------------------------------------------------------------------------
# o-Benzyne preliminary computations

memory 14 gb

molecule {
  0 1
  units bohr
 H   -0.0000000000   -1.4246254000    0.9959240800
 O    0.0000000000    0.0000000000   -0.1255045400
 H   -0.0000000000    1.4246254000    0.9959240800
}

set {
  basis cc-pvdz
  reference rhf
  e_convergence 10
  d_convergence 10
  r_convergence 8
  maxiter 300
  freeze_core True
}

e, wfn = energy('ccsd(t)', return_wfn = True)
psi4.print_out('Giraffe The Energy is %.12f \n'%(e))
--------------------------------------------------------------------------

    Molecular point group: c2v

    Geometry (in Bohr), charge = 0, multiplicity = 1:

       Center              X                  Y                   Z               Mass
    ------------   -----------------  -----------------  -----------------  -----------------
         H            0.000000000000    -1.424625400000     0.995924078091     1.007825032230
         O            0.000000000000     0.000000000000    -0.125504541909    15.994914619570
         H           -0.000000000000     1.424625400000     0.995924078091     1.007825032230

  Charge       = 0
  Multiplicity = 1
  Basis Set: CC-PVDZ
    Blend: CC-PVDZ

    Orbital Energies [Eh]
    ---------------------

    Doubly Occupied:

       1A1   -20.551322     2A1    -1.336330     1B2    -0.696357
       3A1    -0.568081     1B1    -0.493330

  @RHF Final Energy:   -76.02668079315548

   => Energetics <=

    Nuclear Repulsion Energy =              9.1758651707152978
    One-Electron Energy =                -123.1142532468425230
    Two-Electron Energy =                  37.9117072829717401
    Total Energy =                        -76.0266807931554922

  Dipole Moment: [D]
     X:     0.0000      Y:     0.0000      Z:     2.0725     Total:     2.0725

      * MP2 total energy                      =  -76.228556142873984
      * CCSD total energy                     =  -76.238113260338721
      * CCSD(T) total energy                  =  -76.241166650012460
*** Psi4 exiting successfully. Buy a developer a beer!
