                               Psi4 1.4a2.dev629

  ==> Input File <==

--------------------------------------------------------------------------
# o-Benzyne preliminary computations

memory 14 gb

molecule {
  0 1
  units bohr
 C   -1.3750731100   -0.0242768600    0.0000003500
 O    1.3060163600    0.1207012800    0.0000003000
 H   -2.0778739500    1.9096129200   -0.0000799100
 H   -2.1089875800   -0.9792726900    1.6819738900
 H   -2.1089805500   -0.9794039300   -1.6819017300
 H    1.9411746700   -1.5774928400   -0.0000013100
}

set {
  basis cc-pvtz
  reference rhf
  e_convergence 10
  d_convergence 10
  r_convergence 8
  maxiter 300
  freeze_core True
}

e, wfn = energy('ccsd(t)', return_wfn = True)
psi4.print_out('Giraffe The Energy is %.12f \n'%(e))
--------------------------------------------------------------------------

    Molecular point group: c1

    Geometry (in Bohr), charge = 0, multiplicity = 1:

       Center              X                  Y                   Z               Mass
    ------------   -----------------  -----------------  -----------------  -----------------
         C           -1.375073110847    -0.024276858461     0.000000354135    12.000000000000
         O            1.306016359153     0.120701281539     0.000000304135    15.994914619570
         H           -2.077873950847     1.909612921539    -0.000079905865     1.007825032230
         H           -2.108987580847    -0.979272688461     1.681973894135     1.007825032230
         H           -2.108980550847    -0.979403928461    -1.681901725865     1.007825032230
         H            1.941174669153    -1.577492838461    -0.000001305865     1.007825032230

  Charge       = 0
  Multiplicity = 1
  Basis Set: CC-PVTZ
    Blend: CC-PVTZ

    Orbital Energies [Eh]
    ---------------------

    Doubly Occupied:

       1A    -20.552620     2A    -11.269754     3A     -1.354102
       4A     -0.923076     5A     -0.687873     6A     -0.617659
       7A     -0.590047     8A     -0.502057     9A     -0.449146

  @RHF Final Energy:  -115.08911489106907

   => Energetics <=

    Nuclear Repulsion Energy =             40.3077476714798522
    One-Electron Energy =                -236.9010582406609728
    Two-Electron Energy =                  81.5041956781120405
    Total Energy =                       -115.0891148910690731

  Dipole Moment: [D]
     X:    -0.9842      Y:    -1.4950      Z:    -0.0000     Total:     1.7899

      * MP2 total energy                      = -115.517449105836974
      * CCSD total energy                     = -115.535996423709491
      * CCSD(T) total energy                  = -115.550786584149932
*** Psi4 exiting successfully. Buy a developer a beer!
