                               Psi4 1.4a2.dev629

  ==> Input File <==

--------------------------------------------------------------------------
# o-Benzyne preliminary computations

memory 14 gb

molecule {
  0 1
  units bohr
 H   -0.0000000000   -1.4190102621    0.9944799011
 O    0.0000000000   -0.0000000000   -0.1226161821
 H    0.0000000000    1.4190102621    0.9944799011
}

set {
  basis cc-pvtz
  reference rhf
  e_convergence 10
  d_convergence 10
  r_convergence 8
  maxiter 300
  freeze_core True
}

e, wfn = energy('ccsd(t)', return_wfn = True)
psi4.print_out('Giraffe The Energy is %.12f \n'%(e))
--------------------------------------------------------------------------

    Molecular point group: c2v

    Geometry (in Bohr), charge = 0, multiplicity = 1:

       Center              X                  Y                   Z               Mass
    ------------   -----------------  -----------------  -----------------  -----------------
         H            0.000000000000    -1.419010262100     0.992076416598     1.007825032230
         O            0.000000000000     0.000000000000    -0.125019666602    15.994914619570
         H           -0.000000000000     1.419010262100     0.992076416598     1.007825032230

  Charge       = 0
  Multiplicity = 1
  Basis Set: CC-PVTZ
    Blend: CC-PVTZ

    Orbital Energies [Eh]
    ---------------------

    Doubly Occupied:

       1A1   -20.554917     2A1    -1.347193     1B2    -0.708839
       3A1    -0.579880     1B1    -0.504913

  @RHF Final Energy:   -76.05719544525715

   => Energetics <=

    Nuclear Repulsion Energy =              9.2119091192014544
    One-Electron Energy =                -123.1467272556230910
    Two-Electron Energy =                  37.8776226911644969
    Total Energy =                        -76.0571954452571504

  Dipole Moment: [D]
     X:     0.0000      Y:     0.0000      Z:     2.0386     Total:     2.0386

      * MP2 total energy                      =  -76.318635514509168
      * CCSD total energy                     =  -76.324548951661740
      * CCSD(T) total energy                  =  -76.332189159251826
*** Psi4 exiting successfully. Buy a developer a beer!
