                               Psi4 1.4a2.dev629

  ==> Input File <==

--------------------------------------------------------------------------
# o-Benzyne preliminary computations

memory 14 gb

molecule {
  0 1
  units bohr
 C   -1.3782010842   -0.0279928754    0.0000010056
 O    1.3065782601    0.1203105525    0.0000012015
 H   -2.0719103785    1.9091541271   -0.0000811984
 H   -2.1157689412   -0.9785772746    1.6827135554
 H   -2.1157627355   -0.9787075459   -1.6826408967
 H    1.9513407194   -1.5743191037   -0.0000020775
}

set {
  basis cc-pvtz
  reference rhf
  e_convergence 10
  d_convergence 10
  r_convergence 8
  maxiter 300
  freeze_core True
}

e, wfn = energy('ccsd(t)', return_wfn = True)
psi4.print_out('Giraffe The Energy is %.12f \n'%(e))
--------------------------------------------------------------------------

    Molecular point group: c1

    Geometry (in Bohr), charge = 0, multiplicity = 1:

       Center              X                  Y                   Z               Mass
    ------------   -----------------  -----------------  -----------------  -----------------
         C           -1.377390436874    -0.026534601010     0.000000362851    12.000000000000
         O            1.307388907426     0.121768826890     0.000000558751    15.994914619570
         H           -2.071099731174     1.910612401490    -0.000081841149     1.007825032230
         H           -2.114958293874    -0.977119000210     1.682712912651     1.007825032230
         H           -2.114952088174    -0.977249271510    -1.682641539449     1.007825032230
         H            1.952151366726    -1.572860829310    -0.000002720249     1.007825032230

  Charge       = 0
  Multiplicity = 1
  Basis Set: CC-PVTZ
    Blend: CC-PVTZ

    Orbital Energies [Eh]
    ---------------------

    Doubly Occupied:

       1A    -20.552558     2A    -11.269919     3A     -1.353187
       4A     -0.923281     5A     -0.687504     6A     -0.617320
       7A     -0.589270     8A     -0.502013     9A     -0.449446

  @RHF Final Energy:  -115.08905160428341

   => Energetics <=

    Nuclear Repulsion Energy =             40.2727619766256879
    One-Electron Energy =                -236.8346311517396430
    Two-Electron Energy =                  81.4728175708305287
    Total Energy =                       -115.0890516042834122

  Dipole Moment: [D]
     X:    -0.9835      Y:    -1.4953      Z:    -0.0000     Total:     1.7898

      * MP2 total energy                      = -115.517435489858315
      * CCSD total energy                     = -115.535975275525360
      * CCSD(T) total energy                  = -115.550777133707655
*** Psi4 exiting successfully. Buy a developer a beer!
