                               Psi4 1.4a2.dev629

  ==> Input File <==

--------------------------------------------------------------------------
# o-Benzyne preliminary computations

memory 14 gb

molecule {
  0 1
  units bohr
 C   -1.3750748088   -0.0242744115    0.0015514088
 O    1.3060145047    0.1207011403    0.0002126769
 H   -2.0778740816    1.9096140574    0.0043576104
 H   -2.1086286251   -0.9749177792    1.6789713044
 H   -2.1093321713   -0.9837615118   -1.6849009694
 H    1.9411710222   -1.5774936152   -0.0002004411
  no_reorient
  no_com
}

set {
  basis 6-31g*
  reference rhf
  e_convergence 10
  d_convergence 10
  r_convergence 8
  maxiter 300
  dft_spherical_points 1202
  dft_radial_points 99
  freeze_core True
}

#gradient('ccsd(t)')
gradient('b3lyp')
--------------------------------------------------------------------------

    Molecular point group: c1
  Charge       = 0
  Multiplicity = 1
  Basis Set: 6-31G*
    Blend: 6-31G*
  Basis Set: (6-31G* AUX)
    Blend: CC-PVDZ-JKFIT

    Orbital Energies [Eh]
    ---------------------

    Doubly Occupied:

       1A    -19.138433     2A    -10.223062     3A     -1.011280
       4A     -0.680172     5A     -0.502603     6A     -0.435611
       7A     -0.419720     8A     -0.330661     9A     -0.264416

  @DF-RKS Final Energy:  -115.71426989040037

   => Energetics <=

    Nuclear Repulsion Energy =             40.3077994956719010
    One-Electron Energy =                -237.0143471721809476
    Two-Electron Energy =                  93.5446955261173372
    DFT Exchange-Correlation Energy =     -12.5524177400086607
    Empirical Dispersion Energy =           0.0000000000000000
    VV10 Nonlocal Energy =                  0.0000000000000000
    Total Energy =                       -115.7142698904003737

  Dipole Moment: [D]
     X:    -0.8455      Y:    -1.4845      Z:     0.0064     Total:     1.7084

    Molecular point group: c1

    Geometry (in Bohr), charge = 0, multiplicity = 1:

       Center              X                  Y                   Z               Mass
    ------------   -----------------  -----------------  -----------------  -----------------
         C           -1.375074808800    -0.024274411500     0.001551408800    12.000000000000
         O            1.306014504700     0.120701140300     0.000212676900    15.994914619570
         H           -2.077874081600     1.909614057400     0.004357610400     1.007825032230
         H           -2.108628625100    -0.974917779200     1.678971304400     1.007825032230
         H           -2.109332171300    -0.983761511800    -1.684900969400     1.007825032230
         H            1.941171022200    -1.577493615200    -0.000200441100     1.007825032230

  Basis Set: 6-31G*
    Blend: 6-31G*
  Basis Set: (6-31G* AUX)
    Blend: CC-PVDZ-JKFIT

  -Total Gradient:
     Atom            X                  Y                   Z
    ------   -----------------  -----------------  -----------------
       1       -0.005184946278    -0.000473274723     0.002944541005
       2        0.003764274140    -0.008760238458    -0.000120227973
       3        0.000799199135    -0.002845679045     0.000356158485
       4        0.002621868414     0.002946768645    -0.004551800904
       5        0.001596758129     0.000736369927     0.001383873813
       6       -0.003597237037     0.008396118824    -0.000012541757

*** Psi4 exiting successfully. Buy a developer a beer!
