                               Psi4 1.4a2.dev629

  ==> Input File <==

--------------------------------------------------------------------------
# o-Benzyne preliminary computations

memory 14 gb

molecule {
  0 1
  units bohr
 C   -1.3756252737   -0.0234175446    0.0000003584
 O    1.3080885109    0.1201545044    0.0000003569
 H   -2.0861104928    1.9113742741   -0.0000799345
 H   -2.1063915566   -0.9776217065    1.6829384706
 H   -2.1063842592   -0.9777530126   -1.6828664011
 H    1.9426989113   -1.5828686348   -0.0000012603
  no_reorient
  no_com
}

set {
  basis 6-31g*
  reference rhf
  e_convergence 10
  d_convergence 10
  r_convergence 8
  maxiter 300
  dft_spherical_points 1202
  dft_radial_points 99
  freeze_core True
}

#gradient('ccsd(t)')
gradient('b3lyp')
--------------------------------------------------------------------------

    Molecular point group: c1
  Charge       = 0
  Multiplicity = 1
  Basis Set: 6-31G*
    Blend: 6-31G*
  Basis Set: (6-31G* AUX)
    Blend: CC-PVDZ-JKFIT

    Orbital Energies [Eh]
    ---------------------

    Doubly Occupied:

       1A    -19.138578     2A    -10.223271     3A     -1.010390
       4A     -0.679893     5A     -0.501922     6A     -0.435759
       7A     -0.419484     8A     -0.330437     9A     -0.264348

  @DF-RKS Final Energy:  -115.71430734875565

   => Energetics <=

    Nuclear Repulsion Energy =             40.2696926542223821
    One-Electron Energy =                -236.9431128270938132
    Two-Electron Energy =                  93.5098413832703415
    DFT Exchange-Correlation Energy =     -12.5507285591545621
    Empirical Dispersion Energy =           0.0000000000000000
    VV10 Nonlocal Energy =                  0.0000000000000000
    Total Energy =                       -115.7143073487556535

  Dipole Moment: [D]
     X:    -0.8520      Y:    -1.4866      Z:    -0.0000     Total:     1.7134

    Molecular point group: c1

    Geometry (in Bohr), charge = 0, multiplicity = 1:

       Center              X                  Y                   Z               Mass
    ------------   -----------------  -----------------  -----------------  -----------------
         C           -1.375625273700    -0.023417544600     0.000000358400    12.000000000000
         O            1.308088510900     0.120154504400     0.000000356900    15.994914619570
         H           -2.086110492800     1.911374274100    -0.000079934500     1.007825032230
         H           -2.106391556600    -0.977621706500     1.682938470600     1.007825032230
         H           -2.106384259200    -0.977753012600    -1.682866401100     1.007825032230
         H            1.942698911300    -1.582868634800    -0.000001260300     1.007825032230

  Basis Set: 6-31G*
    Blend: 6-31G*
  Basis Set: (6-31G* AUX)
    Blend: CC-PVDZ-JKFIT

  -Total Gradient:
     Atom            X                  Y                   Z
    ------   -----------------  -----------------  -----------------
       1       -0.005563749836    -0.001339149010     0.000000269847
       2        0.003748091440    -0.007094387925     0.000000260172
       3       -0.000126129969    -0.001872497818    -0.000000125571
       4        0.002297104205     0.002030405202    -0.002959086171
       5        0.002297079229     0.002030619804     0.002958900112
       6       -0.002652482571     0.006245072684    -0.000000218392

*** Psi4 exiting successfully. Buy a developer a beer!
