                               Psi4 1.4a2.dev629

  ==> Input File <==

--------------------------------------------------------------------------
# o-Benzyne preliminary computations

memory 14 gb

molecule {
  0 1
  units bohr
 C   -1.3750292100   -0.0232096195    0.0000004538
 O    1.3042828609    0.1253142039    0.0000002389
 H   -2.0765235580    1.9092864009   -0.0000799492
 H   -2.1093121957   -0.9800877238    1.6818536952
 H   -2.1093051188   -0.9802189285   -1.6817815191
 H    1.9421630617   -1.5812164529   -0.0000013295
  no_reorient
  no_com
}

set {
  basis 6-31g*
  reference rhf
  e_convergence 10
  d_convergence 10
  r_convergence 8
  maxiter 300
  dft_spherical_points 1202
  dft_radial_points 99
  freeze_core True
}

#gradient('ccsd(t)')
gradient('b3lyp')
--------------------------------------------------------------------------

    Molecular point group: c1
  Charge       = 0
  Multiplicity = 1
  Basis Set: 6-31G*
    Blend: 6-31G*
  Basis Set: (6-31G* AUX)
    Blend: CC-PVDZ-JKFIT

    Orbital Energies [Eh]
    ---------------------

    Doubly Occupied:

       1A    -19.138936     2A    -10.222954     3A     -1.010729
       4A     -0.679696     5A     -0.502332     6A     -0.435452
       7A     -0.419700     8A     -0.330740     9A     -0.264290

  @DF-RKS Final Energy:  -115.71434432620659

   => Energetics <=

    Nuclear Repulsion Energy =             40.2979567842019790
    One-Electron Energy =                -236.9980408092437472
    Two-Electron Energy =                  93.5367436571420399
    DFT Exchange-Correlation Energy =     -12.5510039583068522
    Empirical Dispersion Energy =           0.0000000000000000
    VV10 Nonlocal Energy =                  0.0000000000000000
    Total Energy =                       -115.7143443262065858

  Dipole Moment: [D]
     X:    -0.8407      Y:    -1.4867      Z:    -0.0000     Total:     1.7080

    Molecular point group: c1

    Geometry (in Bohr), charge = 0, multiplicity = 1:

       Center              X                  Y                   Z               Mass
    ------------   -----------------  -----------------  -----------------  -----------------
         C           -1.375029210000    -0.023209619500     0.000000453800    12.000000000000
         O            1.304282860900     0.125314203900     0.000000238900    15.994914619570
         H           -2.076523558000     1.909286400900    -0.000079949200     1.007825032230
         H           -2.109312195700    -0.980087723800     1.681853695200     1.007825032230
         H           -2.109305118800    -0.980218928500    -1.681781519100     1.007825032230
         H            1.942163061700    -1.581216452900    -0.000001329500     1.007825032230

  Basis Set: 6-31G*
    Blend: 6-31G*
  Basis Set: (6-31G* AUX)
    Blend: CC-PVDZ-JKFIT

  -Total Gradient:
     Atom            X                  Y                   Z
    ------   -----------------  -----------------  -----------------
       1       -0.004685335824     0.000242937921     0.000000290856
       2        0.001587188068    -0.004142362125     0.000000251517
       3        0.001254215480    -0.003365993861    -0.000000079264
       4        0.001985465365     0.001627698902    -0.002798228808
       5        0.001985395279     0.001627866928     0.002797994609
       6       -0.002127016343     0.004009917832    -0.000000228913

*** Psi4 exiting successfully. Buy a developer a beer!
